/*--------------------------------*- C++ -*----------------------------------*\
| =========                 |                                                 |
| \\      /  F ield         | OpenFOAM: The Open Source CFD Toolbox           |
|  \\    /   O peration     | Version:  2106                                  |
|   \\  /    A nd           | Website:  www.openfoam.com                      |
|    \\/     M anipulation  |                                                 |
\*---------------------------------------------------------------------------*/
FoamFile
{
    version     2.0;
    format      ascii;
    arch        "LSB;label=32;scalar=64";
    class       volScalarField;
    location    "30";
    object      dgdt.vapor;
}
// * * * * * * * * * * * * * * * * * * * * * * * * * * * * * * * * * * * * * //

dimensions      [0 0 -1 0 0 0 0];

internalField   nonuniform List<scalar> 
60000
(
2.3642397e-07
-2.8167854e-07
-8.0479282e-07
-1.3345779e-06
-1.8764936e-06
-2.4292969e-06
-2.9921457e-06
-3.5638688e-06
-4.1430259e-06
-4.7260211e-06
-5.3119677e-06
-5.9016934e-06
-6.4872574e-06
-7.076791e-06
-7.6603926e-06
-8.241526e-06
-8.8213977e-06
-9.3957741e-06
-9.9679966e-06
-1.0532032e-05
-1.1091581e-05
-1.1647397e-05
-1.219456e-05
-1.2736705e-05
-1.3272852e-05
-1.379951e-05
-1.4321856e-05
-1.4832053e-05
-1.5336552e-05
-1.5830177e-05
-1.6315851e-05
-1.6792262e-05
-1.7257236e-05
-1.771129e-05
-1.815554e-05
-1.8589039e-05
-1.9010872e-05
-1.942195e-05
-1.9822939e-05
-2.0212637e-05
-2.0591278e-05
-2.0961268e-05
-2.1321677e-05
-2.1670298e-05
-2.2013271e-05
-2.234407e-05
-2.2670713e-05
-2.2991662e-05
-2.3304451e-05
-2.3613204e-05
-2.3917909e-05
-2.421983e-05
-2.4518799e-05
-2.4813646e-05
-2.5107489e-05
-2.540389e-05
-2.569678e-05
-2.5991506e-05
-2.6286008e-05
-2.65821e-05
-2.6877936e-05
-2.7174327e-05
-2.747411e-05
-2.7773939e-05
-2.8072554e-05
-2.8376646e-05
-2.867539e-05
-2.8975355e-05
-2.9274361e-05
-2.9571155e-05
-2.9865442e-05
-3.0157072e-05
-3.0443693e-05
-3.0723346e-05
-3.0997345e-05
-3.1265617e-05
-3.1520922e-05
-3.1770575e-05
-3.2004532e-05
-3.2228939e-05
-3.2441601e-05
-3.2634799e-05
-3.2814938e-05
-3.2978228e-05
-3.3121036e-05
-3.3249365e-05
-3.335593e-05
-3.344199e-05
-3.3507097e-05
-3.3550171e-05
-3.3572947e-05
-3.3571995e-05
-3.3548084e-05
-3.3499516e-05
-3.3427969e-05
-3.3335191e-05
-3.3216064e-05
-3.3075379e-05
-3.2910008e-05
-3.2723009e-05
-3.2512747e-05
-3.2280481e-05
-3.202458e-05
-3.1748891e-05
-3.1452192e-05
-3.1131901e-05
-3.0795441e-05
-3.0436367e-05
-3.0059546e-05
-2.9665038e-05
-2.9250298e-05
-2.8819419e-05
-2.8374376e-05
-2.7908261e-05
-2.742909e-05
-2.6936577e-05
-2.6426527e-05
-2.5906438e-05
-2.5370315e-05
-2.482291e-05
-2.4262796e-05
-2.3692576e-05
-2.3109652e-05
-2.2516936e-05
-2.1916661e-05
-2.1305711e-05
-2.0686078e-05
-2.0056336e-05
-1.9419758e-05
-1.8778007e-05
-1.8127799e-05
-1.7472498e-05
-1.6812467e-05
-1.6144265e-05
-1.5475797e-05
-1.4800951e-05
-1.4125611e-05
-1.3442102e-05
-1.2760985e-05
-1.2074809e-05
-1.1391369e-05
-1.0704335e-05
-1.001938e-05
-9.3312413e-06
-8.6470547e-06
-7.9636696e-06
-7.2820547e-06
-6.6021308e-06
-5.9215386e-06
-5.2486301e-06
-4.5841693e-06
-3.9263369e-06
-3.2724143e-06
-2.6267947e-06
-1.9886842e-06
-1.3558245e-06
-7.3203702e-07
-1.1665262e-07
4.8997716e-07
1.0890112e-06
1.6752226e-06
2.2534863e-06
2.8202904e-06
3.3760151e-06
3.9210549e-06
4.4499839e-06
4.9702065e-06
5.4778783e-06
5.9729421e-06
6.452922e-06
6.9214037e-06
7.3769045e-06
7.817548e-06
8.2452153e-06
8.6584565e-06
9.0575859e-06
9.4418062e-06
9.8131536e-06
1.0170136e-05
1.0513969e-05
1.0843556e-05
1.1158415e-05
1.1460307e-05
1.1749146e-05
1.2025524e-05
1.2286821e-05
1.2537499e-05
1.2771706e-05
1.299905e-05
1.3210469e-05
1.3410596e-05
1.3599411e-05
1.3780194e-05
1.394651e-05
1.4104318e-05
1.4252181e-05
1.4390285e-05
1.4517216e-05
1.463631e-05
1.4750273e-05
1.4851566e-05
1.4948121e-05
1.5036152e-05
1.5116152e-05
1.5191958e-05
1.526061e-05
1.532147e-05
1.5378187e-05
1.5431703e-05
1.5477303e-05
1.5519376e-05
1.5556399e-05
1.5592346e-05
1.5619715e-05
1.564867e-05
1.5670327e-05
1.5691591e-05
1.5708599e-05
1.5724613e-05
1.5735965e-05
1.5747373e-05
1.5756453e-05
1.5763965e-05
1.5767737e-05
1.5773314e-05
1.5775235e-05
1.5775657e-05
1.5776321e-05
1.5774476e-05
1.5772596e-05
1.5771428e-05
1.5768509e-05
1.5764649e-05
1.5759007e-05
1.5754534e-05
1.5748494e-05
1.5742596e-05
1.5735584e-05
1.573045e-05
1.5722203e-05
1.5716254e-05
1.5709965e-05
1.5701664e-05
1.5693663e-05
1.5685867e-05
1.567758e-05
1.5670259e-05
1.5659965e-05
1.5653827e-05
1.5645566e-05
1.5637402e-05
1.5628863e-05
1.5620997e-05
1.5610758e-05
1.5603416e-05
1.5594316e-05
1.5586089e-05
1.5577699e-05
1.5570311e-05
1.5560955e-05
1.5552417e-05
1.5543651e-05
1.553738e-05
1.5527766e-05
1.5517441e-05
1.551201e-05
1.5502517e-05
1.5493859e-05
1.5485682e-05
1.5476833e-05
1.5469059e-05
1.5462111e-05
1.5452374e-05
1.5445185e-05
1.5435451e-05
1.5427645e-05
1.5419495e-05
1.5412123e-05
1.5403407e-05
1.5393545e-05
1.5387396e-05
1.5379692e-05
1.5370577e-05
1.536335e-05
1.5354544e-05
1.5346897e-05
1.5339125e-05
1.5332173e-05
1.5321759e-05
1.5313939e-05
1.5307356e-05
1.5298771e-05
1.5289765e-05
1.5284145e-05
1.5274688e-05
1.5266656e-05
1.5256902e-05
1.5250995e-05
1.524e-05
1.5236095e-05
1.5231977e-05
1.5227449e-05
1.5219488e-05
1.5212727e-05
1.5204026e-05
1.5196989e-05
1.5189042e-05
1.5180532e-05
1.5174611e-05
1.5167291e-05
1.5160273e-05
1.5152157e-05
1.5145138e-05
1.5136657e-05
1.5129122e-05
1.5121661e-05
1.5113544e-05
1.5108947e-05
1.5098834e-05
1.5092798e-05
1.5084051e-05
1.5077129e-05
1.5069194e-05
1.5062017e-05
1.5055095e-05
1.5048726e-05
1.5041284e-05
1.5035273e-05
1.5027978e-05
1.5020649e-05
1.501206e-05
1.5004675e-05
1.4997672e-05
1.4988334e-05
1.4982206e-05
1.4973755e-05
1.4968074e-05
1.4959855e-05
1.4953098e-05
1.4944116e-05
1.4936407e-05
1.493042e-05
1.4922685e-05
1.4915595e-05
1.490709e-05
1.4900256e-05
1.4893869e-05
1.488476e-05
1.4877435e-05
1.4867883e-05
1.4863351e-05
1.4855554e-05
1.4846316e-05
1.4840663e-05
1.4832554e-05
1.4823859e-05
1.4816299e-05
1.4808556e-05
1.4802181e-05
1.4793062e-05
1.4785441e-05
1.477876e-05
1.4770333e-05
1.476323e-05
1.4755132e-05
1.4747506e-05
1.473962e-05
1.4731787e-05
1.4725509e-05
1.4717692e-05
1.4708841e-05
1.4701247e-05
1.4693703e-05
1.4685637e-05
1.4678497e-05
1.4670494e-05
1.4664116e-05
1.4656496e-05
1.4646396e-05
1.4638358e-05
1.4632182e-05
1.4624648e-05
1.4616127e-05
1.4608188e-05
1.4600186e-05
1.4592954e-05
1.4584851e-05
1.457806e-05
1.4569584e-05
1.4561554e-05
1.4554241e-05
1.4544632e-05
1.4536856e-05
1.4529101e-05
1.4520887e-05
1.4513895e-05
1.4506137e-05
1.4495484e-05
1.4489581e-05
1.4480769e-05
1.4471809e-05
1.4462573e-05
1.4457329e-05
1.4448681e-05
1.4440719e-05
1.4431569e-05
1.4424244e-05
1.4414617e-05
1.4407308e-05
1.4398464e-05
1.4391225e-05
1.4383569e-05
1.4374584e-05
1.4363655e-05
1.4355649e-05
1.434724e-05
1.4338293e-05
1.4332458e-05
1.4322072e-05
1.4313985e-05
1.4304628e-05
1.4296421e-05
1.4288399e-05
1.4281389e-05
1.427171e-05
1.4263876e-05
1.4254439e-05
1.4245049e-05
1.4236596e-05
1.4228155e-05
1.4218779e-05
1.4211804e-05
1.4203313e-05
1.4193593e-05
1.4183586e-05
1.4176085e-05
1.4167705e-05
1.4158252e-05
1.4150127e-05
1.4140044e-05
1.4131855e-05
1.4122669e-05
1.4114582e-05
1.4104091e-05
1.4094956e-05
1.408714e-05
1.4077855e-05
1.4067461e-05
1.4060425e-05
1.4052319e-05
1.4046393e-05
1.4040726e-05
1.4031324e-05
1.4020895e-05
1.4014119e-05
1.400618e-05
1.3995986e-05
1.3987939e-05
1.3978783e-05
1.3969998e-05
1.3963067e-05
1.3954088e-05
1.3944246e-05
1.39366e-05
1.3928043e-05
1.3918089e-05
1.3910346e-05
1.3901528e-05
1.3892553e-05
1.3884794e-05
1.3875384e-05
1.3868042e-05
1.3859491e-05
1.3851253e-05
1.3841643e-05
1.3833391e-05
1.3824229e-05
1.3816006e-05
1.3806306e-05
1.3799124e-05
1.3789154e-05
1.3781433e-05
1.3771971e-05
1.3763028e-05
1.3754186e-05
1.3743926e-05
1.373419e-05
1.3726577e-05
1.3716906e-05
1.3706644e-05
1.3698541e-05
1.3688895e-05
1.367898e-05
1.3669293e-05
1.3659043e-05
1.3649517e-05
1.3638295e-05
1.3628226e-05
1.3619766e-05
1.3608625e-05
1.3597933e-05
1.3587338e-05
1.3578574e-05
1.3565384e-05
1.3554928e-05
1.3544469e-05
1.3533907e-05
1.3520792e-05
1.351121e-05
1.3496843e-05
1.3486529e-05
1.3474983e-05
1.3463569e-05
1.345e-05
1.3438621e-05
1.3426353e-05
1.3414747e-05
1.3402086e-05
1.3387958e-05
1.3377722e-05
1.3365734e-05
1.3352947e-05
1.3339962e-05
1.3327553e-05
1.3314151e-05
1.3303107e-05
1.3291409e-05
1.3279382e-05
1.3266809e-05
1.3253786e-05
1.32428e-05
1.323115e-05
1.3219625e-05
1.3208845e-05
1.3197392e-05
1.3185666e-05
1.3174637e-05
1.3165425e-05
1.3153377e-05
1.314335e-05
1.3134066e-05
1.3124861e-05
1.3113778e-05
1.3103237e-05
1.3093718e-05
1.308369e-05
1.3073772e-05
1.3062557e-05
1.3052407e-05
1.303939e-05
1.30292e-05
1.3013847e-05
1.300143e-05
1.2984796e-05
1.2967039e-05
1.2949064e-05
1.292675e-05
1.290316e-05
1.287533e-05
1.2844069e-05
1.2807398e-05
1.2768002e-05
1.2721286e-05
1.2670725e-05
1.2611681e-05
1.2545085e-05
1.2469863e-05
1.2384404e-05
1.2289498e-05
1.2182979e-05
1.2064772e-05
1.193384e-05
1.1785749e-05
1.1625747e-05
1.1446665e-05
1.1254648e-05
1.1041266e-05
1.0810289e-05
1.0560375e-05
1.0292909e-05
1.0002453e-05
9.6947932e-06
9.365528e-06
9.0137699e-06
8.6421696e-06
8.2500345e-06
7.8362204e-06
7.4038905e-06
6.9504962e-06
6.4792723e-06
5.9870611e-06
5.4757303e-06
4.947143e-06
4.4021255e-06
3.8367186e-06
3.2562294e-06
2.6575329e-06
2.0483785e-06
1.4277896e-06
7.9524249e-07
2.4279964e-07
-2.6864366e-07
-7.9441839e-07
-1.3413043e-06
-1.9215589e-06
-2.5382812e-06
-3.1829116e-06
-3.8592823e-06
-4.5577499e-06
-5.2780091e-06
-6.0188756e-06
-6.7719246e-06
-7.5345436e-06
-8.3051833e-06
-9.0738564e-06
-9.8509643e-06
-1.0621572e-05
-1.1388571e-05
-1.2150744e-05
-1.2905778e-05
-1.3651889e-05
-1.4384873e-05
-1.5105055e-05
-1.5812799e-05
-1.650059e-05
-1.7176218e-05
-1.7826482e-05
-1.8457522e-05
-1.9069238e-05
-1.9653001e-05
-2.0215838e-05
-2.0747899e-05
-2.1253252e-05
-2.1731311e-05
-2.2179208e-05
-2.259715e-05
-2.2983175e-05
-2.3345472e-05
-2.3671939e-05
-2.3970768e-05
-2.4241992e-05
-2.4483188e-05
-2.4695289e-05
-2.4888614e-05
-2.50516e-05
-2.519284e-05
-2.5314236e-05
-2.5413883e-05
-2.5498872e-05
-2.5571414e-05
-2.562749e-05
-2.5676757e-05
-2.5712315e-05
-2.5745856e-05
-2.5770808e-05
-2.5795081e-05
-2.5817332e-05
-2.5839881e-05
-2.5866276e-05
-2.5896046e-05
-2.59276e-05
-2.5969656e-05
-2.6013703e-05
-2.6065442e-05
-2.612806e-05
-2.6194376e-05
-2.6272174e-05
-2.6356978e-05
-2.6449461e-05
-2.6550261e-05
-2.6656111e-05
-2.6769933e-05
-2.6889031e-05
-2.7014641e-05
-2.7143655e-05
-2.7273122e-05
-2.7405757e-05
-2.7538663e-05
-2.7671531e-05
-2.7800201e-05
-2.7927487e-05
-2.805138e-05
-2.8165391e-05
-2.8275325e-05
-2.8374188e-05
-2.8464203e-05
-2.8545043e-05
-2.8614373e-05
-2.8667659e-05
-2.8709747e-05
-2.8734563e-05
-2.8745921e-05
-2.8741404e-05
-2.8718519e-05
-2.8679171e-05
-2.862298e-05
-2.8548279e-05
-2.845525e-05
-2.8345849e-05
-2.8216575e-05
-2.8068381e-05
-2.7903294e-05
-2.7719607e-05
-2.7516687e-05
-2.729915e-05
-2.7062966e-05
-2.6809433e-05
-2.6539534e-05
-2.6252904e-05
-2.595251e-05
-2.5634449e-05
-2.5303862e-05
-2.4954605e-05
-2.4597458e-05
-2.4222384e-05
-2.3835531e-05
-2.3436843e-05
-2.3026014e-05
-2.2604689e-05
-2.2170058e-05
-2.1728165e-05
-2.127276e-05
-2.0810736e-05
-2.0336747e-05
-1.9855865e-05
-1.9368113e-05
-1.886933e-05
-1.8361885e-05
-1.7855177e-05
-1.7335553e-05
-1.681398e-05
-1.6282183e-05
-1.5749805e-05
-1.5212295e-05
-1.4669392e-05
-1.4120928e-05
-1.3569135e-05
-1.3020907e-05
-1.246279e-05
-1.1906402e-05
-1.1345659e-05
-1.0785083e-05
-1.0221683e-05
-9.6627279e-06
-9.0974757e-06
-8.5361367e-06
-7.972669e-06
-7.4117295e-06
-6.8506441e-06
-6.2915958e-06
-5.745074e-06
-5.2022802e-06
-4.6599165e-06
-4.123616e-06
-3.5911043e-06
-3.0631721e-06
-2.5410851e-06
-2.0233648e-06
-1.5158272e-06
-1.0154298e-06
-5.1672168e-07
-3.3238251e-08
4.4447827e-07
9.1611245e-07
1.3760834e-06
1.8278117e-06
2.2702693e-06
2.7005974e-06
3.1237294e-06
3.5338241e-06
3.9355463e-06
4.3277917e-06
4.7055013e-06
5.0728695e-06
5.4290512e-06
5.7752154e-06
6.1087717e-06
6.4314302e-06
6.7423231e-06
7.0409968e-06
7.3260605e-06
7.6039462e-06
7.8695544e-06
8.1212533e-06
8.3657258e-06
8.5961895e-06
8.8148885e-06
9.0283377e-06
9.2267324e-06
9.4162824e-06
9.5931395e-06
9.7644725e-06
9.924576e-06
1.0074991e-05
1.0215181e-05
1.0349752e-05
1.0474971e-05
1.0591869e-05
1.070058e-05
1.0802626e-05
1.0898055e-05
1.0985875e-05
1.1068537e-05
1.1141785e-05
1.1210203e-05
1.1275921e-05
1.1334021e-05
1.1387681e-05
1.143718e-05
1.1482404e-05
1.1522034e-05
1.1558427e-05
1.1591321e-05
1.161918e-05
1.1648816e-05
1.1670284e-05
1.1693193e-05
1.1711383e-05
1.1727698e-05
1.1742302e-05
1.1757131e-05
1.1766609e-05
1.1775732e-05
1.1780971e-05
1.1786719e-05
1.1791278e-05
1.1795933e-05
1.1798471e-05
1.1801301e-05
1.1801309e-05
1.1802045e-05
1.1800596e-05
1.1799068e-05
1.1796426e-05
1.1794147e-05
1.1791248e-05
1.1788116e-05
1.1784188e-05
1.1781928e-05
1.1777122e-05
1.1773023e-05
1.1769841e-05
1.1763844e-05
1.1760046e-05
1.1755368e-05
1.1748677e-05
1.1744279e-05
1.1738679e-05
1.1734898e-05
1.1729416e-05
1.1726003e-05
1.1717682e-05
1.171304e-05
1.1707797e-05
1.1703226e-05
1.1698393e-05
1.1691316e-05
1.1688886e-05
1.1681723e-05
1.1674931e-05
1.1668796e-05
1.1666131e-05
1.1658479e-05
1.1654378e-05
1.1648764e-05
1.1643573e-05
1.1635382e-05
1.1632848e-05
1.162634e-05
1.1623122e-05
1.1615917e-05
1.1610959e-05
1.160705e-05
1.1601307e-05
1.1596002e-05
1.1590947e-05
1.1586219e-05
1.1579185e-05
1.1574318e-05
1.1571471e-05
1.1568766e-05
1.1561956e-05
1.155633e-05
1.1551414e-05
1.1546841e-05
1.1541909e-05
1.1537097e-05
1.1530619e-05
1.1526159e-05
1.1522498e-05
1.1517316e-05
1.1510774e-05
1.1505736e-05
1.1496795e-05
1.1491521e-05
1.1486518e-05
1.148129e-05
1.1472665e-05
1.1465461e-05
1.1464707e-05
1.1474234e-05
1.1478504e-05
1.1472296e-05
1.1467841e-05
1.1464841e-05
1.1460428e-05
1.1453873e-05
1.1452161e-05
1.144792e-05
1.1443894e-05
1.1438292e-05
1.1435614e-05
1.1430816e-05
1.1427067e-05
1.1421961e-05
1.1419226e-05
1.1415365e-05
1.1411692e-05
1.1405938e-05
1.1403044e-05
1.1400637e-05
1.1395532e-05
1.1389241e-05
1.1388835e-05
1.138392e-05
1.1378501e-05
1.1374473e-05
1.1369462e-05
1.1367529e-05
1.1362263e-05
1.1359969e-05
1.135454e-05
1.1353198e-05
1.1348084e-05
1.1345143e-05
1.1341638e-05
1.1336225e-05
1.133271e-05
1.1328545e-05
1.132515e-05
1.1322626e-05
1.1316539e-05
1.1312591e-05
1.1310008e-05
1.1306126e-05
1.1302082e-05
1.1297923e-05
1.1295108e-05
1.1288301e-05
1.1284607e-05
1.1280526e-05
1.1278098e-05
1.1274474e-05
1.1268977e-05
1.1266902e-05
1.1263431e-05
1.1258304e-05
1.1254499e-05
1.1251047e-05
1.1247466e-05
1.1242699e-05
1.1237582e-05
1.1235277e-05
1.1230461e-05
1.1228146e-05
1.1223934e-05
1.1219438e-05
1.1213338e-05
1.1212125e-05
1.1205684e-05
1.1203957e-05
1.1200384e-05
1.1196345e-05
1.1194125e-05
1.1187195e-05
1.1184372e-05
1.1180302e-05
1.1175826e-05
1.1172261e-05
1.1167713e-05
1.1164616e-05
1.1161553e-05
1.115705e-05
1.1155172e-05
1.1150196e-05
1.1144731e-05
1.1141609e-05
1.1139681e-05
1.1135641e-05
1.1131932e-05
1.1126613e-05
1.1122313e-05
1.112061e-05
1.1114891e-05
1.1114482e-05
1.1108195e-05
1.1104384e-05
1.1101793e-05
1.1097987e-05
1.1092617e-05
1.1089311e-05
1.1087738e-05
1.1081408e-05
1.1077784e-05
1.1072558e-05
1.1069464e-05
1.1067194e-05
1.106085e-05
1.1056236e-05
1.1056323e-05
1.104946e-05
1.104509e-05
1.1043345e-05
1.1039223e-05
1.1034001e-05
1.1033328e-05
1.1027308e-05
1.1022794e-05
1.1015377e-05
1.1014807e-05
1.1010296e-05
1.1006034e-05
1.100315e-05
1.0997908e-05
1.0995161e-05
1.0990031e-05
1.0982986e-05
1.098313e-05
1.097834e-05
1.0972954e-05
1.0969121e-05
1.0966082e-05
1.0962474e-05
1.0956644e-05
1.0953408e-05
1.0948978e-05
1.094381e-05
1.0939492e-05
1.0936441e-05
1.0929947e-05
1.0926337e-05
1.0921802e-05
1.0916993e-05
1.0913278e-05
1.0906936e-05
1.0902893e-05
1.0896167e-05
1.0890891e-05
1.0884147e-05
1.088496e-05
1.088733e-05
1.0891794e-05
1.0885319e-05
1.0884298e-05
1.0881689e-05
1.0874919e-05
1.0871747e-05
1.0868564e-05
1.086387e-05
1.0861069e-05
1.0854395e-05
1.0853068e-05
1.0850331e-05
1.0846055e-05
1.0841679e-05
1.0839264e-05
1.0835396e-05
1.0831835e-05
1.0828177e-05
1.0825525e-05
1.0821439e-05
1.0819298e-05
1.0816026e-05
1.0810784e-05
1.0807006e-05
1.0804575e-05
1.0800389e-05
1.0798524e-05
1.0795649e-05
1.0790664e-05
1.0787409e-05
1.0784946e-05
1.0780784e-05
1.0778306e-05
1.0772604e-05
1.077206e-05
1.0766415e-05
1.0762549e-05
1.0760697e-05
1.0756259e-05
1.075455e-05
1.0751027e-05
1.0745647e-05
1.0743403e-05
1.0737202e-05
1.0733882e-05
1.0731525e-05
1.0726032e-05
1.0721848e-05
1.0717305e-05
1.0714142e-05
1.0711619e-05
1.0704735e-05
1.0699423e-05
1.0695658e-05
1.0691872e-05
1.0687146e-05
1.0681656e-05
1.0676979e-05
1.067142e-05
1.0666808e-05
1.0662464e-05
1.0655703e-05
1.0651223e-05
1.0643523e-05
1.0639049e-05
1.0634419e-05
1.0627327e-05
1.0620854e-05
1.0614528e-05
1.0608539e-05
1.0602442e-05
1.059486e-05
1.0589059e-05
1.058188e-05
1.0573849e-05
1.0567851e-05
1.0560724e-05
1.0553525e-05
1.0547442e-05
1.0539376e-05
1.0531714e-05
1.0525296e-05
1.0518595e-05
1.0508466e-05
1.0501489e-05
1.0496139e-05
1.0484691e-05
1.0478292e-05
1.0468565e-05
1.045894e-05
1.0450456e-05
1.0439896e-05
1.0432022e-05
1.0419659e-05
1.0410533e-05
1.0398057e-05
1.0386018e-05
1.0373114e-05
1.0360237e-05
1.0340697e-05
1.0325346e-05
1.0306405e-05
1.0285952e-05
1.0264511e-05
1.0238551e-05
1.0209751e-05
1.0177983e-05
1.0147131e-05
1.0105508e-05
1.0065418e-05
1.0017933e-05
9.9677944e-06
9.9110085e-06
9.8505057e-06
9.7787492e-06
9.7067239e-06
9.6270152e-06
9.5407498e-06
9.4463127e-06
9.3475122e-06
9.2410941e-06
9.1265421e-06
9.0066664e-06
8.8774588e-06
8.7433545e-06
8.6052142e-06
8.4562597e-06
8.3015324e-06
8.1383684e-06
7.9678174e-06
7.7874394e-06
7.5927146e-06
7.3885307e-06
7.1740456e-06
6.9405489e-06
6.6865889e-06
6.4145802e-06
6.1190932e-06
5.7957924e-06
5.4435452e-06
5.0613771e-06
4.6487164e-06
4.1967599e-06
3.7121919e-06
3.1875447e-06
2.633703e-06
2.0426814e-06
1.4279355e-06
7.9879191e-07
2.4399662e-07
-2.7365301e-07
-8.0954418e-07
-1.3881508e-06
-2.0145845e-06
-2.6866759e-06
-3.4082662e-06
-4.1709908e-06
-4.9752741e-06
-5.8101668e-06
-6.6747344e-06
-7.5618988e-06
-8.4657665e-06
-9.3806172e-06
-1.0307113e-05
-1.1230652e-05
-1.2161161e-05
-1.3083945e-05
-1.4001126e-05
-1.4905512e-05
-1.5800406e-05
-1.6675914e-05
-1.7533794e-05
-1.8370363e-05
-1.9180809e-05
-1.9962531e-05
-2.071775e-05
-2.1439926e-05
-2.2126276e-05
-2.2777822e-05
-2.3388566e-05
-2.3959287e-05
-2.4487639e-05
-2.4973268e-05
-2.5413734e-05
-2.5810987e-05
-2.6162313e-05
-2.6465283e-05
-2.6724514e-05
-2.6942317e-05
-2.7110795e-05
-2.7241033e-05
-2.7327991e-05
-2.737684e-05
-2.7390582e-05
-2.736795e-05
-2.731443e-05
-2.7232063e-05
-2.7124403e-05
-2.6992089e-05
-2.6843022e-05
-2.6674009e-05
-2.649243e-05
-2.6298595e-05
-2.6100986e-05
-2.5896319e-05
-2.5688304e-05
-2.5483816e-05
-2.5277079e-05
-2.5078503e-05
-2.4886427e-05
-2.4703726e-05
-2.4530052e-05
-2.4370917e-05
-2.4222286e-05
-2.4087546e-05
-2.39675e-05
-2.3861791e-05
-2.3770627e-05
-2.3694999e-05
-2.363552e-05
-2.3588324e-05
-2.3557284e-05
-2.3540118e-05
-2.353262e-05
-2.3539722e-05
-2.3556436e-05
-2.3584037e-05
-2.3619245e-05
-2.3660264e-05
-2.3707829e-05
-2.375991e-05
-2.3813191e-05
-2.3870918e-05
-2.3925459e-05
-2.3981347e-05
-2.4034383e-05
-2.4081982e-05
-2.4125614e-05
-2.4161182e-05
-2.4189677e-05
-2.421234e-05
-2.4224297e-05
-2.4225105e-05
-2.4211749e-05
-2.4190771e-05
-2.4157036e-05
-2.4110302e-05
-2.4051216e-05
-2.3976749e-05
-2.3888708e-05
-2.378872e-05
-2.3671441e-05
-2.3542216e-05
-2.34001e-05
-2.3243718e-05
-2.3070588e-05
-2.288822e-05
-2.2690645e-05
-2.2479001e-05
-2.2255099e-05
-2.2020463e-05
-2.1773186e-05
-2.1512039e-05
-2.1239429e-05
-2.0958822e-05
-2.0665721e-05
-2.0361242e-05
-2.0051929e-05
-1.9726822e-05
-1.9395503e-05
-1.9056412e-05
-1.8709101e-05
-1.8351305e-05
-1.7987904e-05
-1.7616027e-05
-1.7236222e-05
-1.6855578e-05
-1.6461091e-05
-1.6067188e-05
-1.5662436e-05
-1.525762e-05
-1.4844289e-05
-1.4431101e-05
-1.4008348e-05
-1.3585479e-05
-1.3157197e-05
-1.2724737e-05
-1.2290219e-05
-1.1856635e-05
-1.1416342e-05
-1.0973734e-05
-1.0531785e-05
-1.0088677e-05
-9.6424879e-06
-9.1977133e-06
-8.7505286e-06
-8.3011596e-06
-7.8502134e-06
-7.4034975e-06
-6.9672978e-06
-6.5335166e-06
-6.098788e-06
-5.6625902e-06
-5.2331884e-06
-4.8027393e-06
-4.3794742e-06
-3.9585418e-06
-3.5409958e-06
-3.1270258e-06
-2.7243445e-06
-2.3226904e-06
-1.9250435e-06
-1.5360212e-06
-1.1530671e-06
-7.771574e-07
-4.0659015e-07
-4.6456883e-08
3.0979434e-07
6.5410201e-07
9.9432229e-07
1.323863e-06
1.6483547e-06
1.9621281e-06
2.265948e-06
2.5615933e-06
2.8482877e-06
3.1252701e-06
3.3954825e-06
3.6550833e-06
3.9049887e-06
4.147475e-06
4.3783696e-06
4.6000847e-06
4.8136965e-06
5.0186793e-06
5.212172e-06
5.4005192e-06
5.5791621e-06
5.7491076e-06
5.908441e-06
6.0625717e-06
6.2065476e-06
6.3426042e-06
6.4709929e-06
6.5946701e-06
6.7105966e-06
6.8170495e-06
6.919301e-06
7.0127964e-06
7.0999669e-06
7.1839028e-06
7.2595238e-06
7.3346473e-06
7.3962422e-06
7.4579135e-06
7.5182823e-06
7.567043e-06
7.6176461e-06
7.6611323e-06
7.7006932e-06
7.736005e-06
7.7720959e-06
7.8008725e-06
7.8278645e-06
7.8540337e-06
7.8755653e-06
7.8989277e-06
7.9146091e-06
7.9302301e-06
7.9439631e-06
7.958198e-06
7.9682844e-06
7.9781449e-06
7.9869331e-06
7.9950108e-06
7.9995719e-06
8.0069253e-06
8.0076634e-06
8.0126873e-06
8.0156642e-06
8.0171207e-06
8.0196568e-06
8.0206574e-06
8.0203701e-06
8.0231456e-06
8.0222996e-06
8.023387e-06
8.0200819e-06
8.0189275e-06
8.0182222e-06
8.0163992e-06
8.0153776e-06
8.0126122e-06
8.0132197e-06
8.006669e-06
8.0055102e-06
8.0059463e-06
8.003121e-06
7.9999629e-06
7.9956295e-06
7.9937314e-06
7.991857e-06
7.990201e-06
7.9876925e-06
7.9840359e-06
7.9834793e-06
7.9796253e-06
7.9764342e-06
7.9752962e-06
7.9738504e-06
7.9707635e-06
7.9677774e-06
7.9659946e-06
7.9617973e-06
7.9610955e-06
7.9576165e-06
7.9551189e-06
7.9535813e-06
7.949408e-06
7.9488357e-06
7.9473276e-06
7.9453798e-06
7.9436461e-06
7.9403569e-06
7.9391807e-06
7.9350849e-06
7.933818e-06
7.933156e-06
7.931717e-06
7.9272737e-06
7.9263351e-06
7.9255168e-06
7.9246382e-06
7.9219731e-06
7.9202085e-06
7.9160337e-06
7.9175825e-06
7.9128571e-06
7.9136531e-06
7.9093185e-06
7.9082605e-06
7.9036188e-06
7.9011052e-06
7.8976388e-06
7.8923864e-06
7.887507e-06
7.8810363e-06
7.8734908e-06
7.8760032e-06
7.8983728e-06
7.9090273e-06
7.9101536e-06
7.9063633e-06
7.9059643e-06
7.904272e-06
7.9055959e-06
7.9034344e-06
7.9023868e-06
7.9007057e-06
7.9004019e-06
7.9002172e-06
7.8977283e-06
7.8958587e-06
7.8982953e-06
7.8973491e-06
7.8957855e-06
7.8942242e-06
7.8971799e-06
7.8940015e-06
7.8958409e-06
7.8941444e-06
7.8931182e-06
7.8935818e-06
7.8910133e-06
7.8927507e-06
7.8926289e-06
7.8898343e-06
7.8888895e-06
7.888152e-06
7.8902474e-06
7.8877916e-06
7.8873747e-06
7.8890261e-06
7.8866731e-06
7.8865797e-06
7.8850823e-06
7.8861226e-06
7.885082e-06
7.8843005e-06
7.8836421e-06
7.8823774e-06
7.8830892e-06
7.8830349e-06
7.880967e-06
7.880787e-06
7.8782486e-06
7.8815628e-06
7.8812672e-06
7.880344e-06
7.8809299e-06
7.8781038e-06
7.8797075e-06
7.8773647e-06
7.8794735e-06
7.8769784e-06
7.8776436e-06
7.8763106e-06
7.8791179e-06
7.8770202e-06
7.8757122e-06
7.8774534e-06
7.8756914e-06
7.8736686e-06
7.8761606e-06
7.874563e-06
7.873755e-06
7.8771394e-06
7.8752768e-06
7.8751233e-06
7.8746962e-06
7.8750135e-06
7.8764796e-06
7.8749349e-06
7.8744031e-06
7.8755891e-06
7.8757253e-06
7.8750254e-06
7.8764037e-06
7.8756654e-06
7.8757049e-06
7.8747738e-06
7.8757841e-06
7.8757096e-06
7.8761974e-06
7.8771264e-06
7.8773236e-06
7.8759456e-06
7.8764227e-06
7.8780726e-06
7.8788525e-06
7.8765883e-06
7.8777532e-06
7.8774722e-06
7.8768466e-06
7.8784737e-06
7.8792781e-06
7.8798356e-06
7.87808e-06
7.8804072e-06
7.8785123e-06
7.8804361e-06
7.87982e-06
7.8806106e-06
7.8825157e-06
7.8833889e-06
7.8813532e-06
7.8813517e-06
7.882685e-06
7.8830177e-06
7.8833833e-06
7.8832427e-06
7.8826465e-06
7.8851907e-06
7.8845393e-06
7.8839374e-06
7.8846082e-06
7.8868288e-06
7.8864005e-06
7.8860183e-06
7.8867502e-06
7.8866521e-06
7.8864598e-06
7.8886155e-06
7.8895464e-06
7.8881259e-06
7.8882643e-06
7.8906761e-06
7.8881845e-06
7.8896116e-06
7.8901077e-06
7.8894502e-06
7.8910446e-06
7.8929708e-06
7.8908586e-06
7.8918076e-06
7.8915816e-06
7.8893042e-06
7.8918239e-06
7.8918687e-06
7.8919992e-06
7.8917293e-06
7.8901082e-06
7.8896724e-06
7.8867187e-06
7.886336e-06
7.8850163e-06
7.8820964e-06
7.8791053e-06
7.882749e-06
7.9012243e-06
7.9117573e-06
7.9118332e-06
7.912028e-06
7.9132805e-06
7.9120736e-06
7.9111902e-06
7.9157451e-06
7.9146155e-06
7.9188428e-06
7.919205e-06
7.9207941e-06
7.9209488e-06
7.9210123e-06
7.9254554e-06
7.9267593e-06
7.9275344e-06
7.9290499e-06
7.9307974e-06
7.9322308e-06
7.9315337e-06
7.9345891e-06
7.9372651e-06
7.9374106e-06
7.9396093e-06
7.9411643e-06
7.943387e-06
7.9463188e-06
7.9468814e-06
7.951894e-06
7.9514208e-06
7.95536e-06
7.956195e-06
7.9578959e-06
7.9603751e-06
7.9623681e-06
7.9637717e-06
7.9647242e-06
7.9684423e-06
7.9705709e-06
7.9716783e-06
7.9741597e-06
7.9758495e-06
7.9782836e-06
7.9809785e-06
7.9822277e-06
7.9840602e-06
7.9867487e-06
7.9893184e-06
7.9928852e-06
7.9928116e-06
7.9945215e-06
7.9961618e-06
7.9985407e-06
7.9999159e-06
8.0020035e-06
8.0012721e-06
8.003771e-06
8.0044756e-06
8.0065489e-06
8.0070738e-06
8.0084527e-06
8.0101043e-06
8.0105156e-06
8.0125685e-06
8.0095163e-06
8.0128686e-06
8.0111107e-06
8.0125165e-06
8.0127232e-06
8.0125743e-06
8.0107853e-06
8.011209e-06
8.0090068e-06
8.0069276e-06
8.0064154e-06
8.0058076e-06
8.0046376e-06
8.0005287e-06
7.9997716e-06
7.9969263e-06
7.9929951e-06
7.9894603e-06
7.9883734e-06
7.9803491e-06
7.9797719e-06
7.9732121e-06
7.9691412e-06
7.9621907e-06
7.9574825e-06
7.9501733e-06
7.9420442e-06
7.935317e-06
7.9290615e-06
7.919013e-06
7.9063734e-06
7.8964232e-06
7.8845998e-06
7.8685798e-06
7.8544967e-06
7.8369994e-06
7.8195049e-06
7.7985456e-06
7.774249e-06
7.7500328e-06
7.7189077e-06
7.6890175e-06
7.6543935e-06
7.6153388e-06
7.5743991e-06
7.5275149e-06
7.4804112e-06
7.4246847e-06
7.3683297e-06
7.3036119e-06
7.2386149e-06
7.167233e-06
7.0941321e-06
7.0159082e-06
6.9353266e-06
6.8519039e-06
6.7686801e-06
6.6872197e-06
6.6008853e-06
6.5198293e-06
6.4408267e-06
6.3618069e-06
6.2869865e-06
6.214898e-06
6.144521e-06
6.079216e-06
6.0101912e-06
5.9413636e-06
5.8683041e-06
5.7870217e-06
5.6928393e-06
5.5817824e-06
5.4502657e-06
5.293922e-06
5.1041865e-06
4.8786028e-06
4.6129925e-06
4.3018864e-06
3.9442067e-06
3.5343575e-06
3.0747877e-06
2.5661493e-06
2.0112864e-06
1.4224764e-06
7.9601504e-07
2.4587695e-07
-2.7298897e-07
-8.3274735e-07
-1.444404e-06
-2.1120366e-06
-2.8376971e-06
-3.6218099e-06
-4.4574723e-06
-5.3399128e-06
-6.2649192e-06
-7.2255138e-06
-8.212153e-06
-9.2214161e-06
-1.0248544e-05
-1.1284537e-05
-1.2325167e-05
-1.3368061e-05
-1.4406003e-05
-1.5433477e-05
-1.6448552e-05
-1.7448994e-05
-1.8426105e-05
-1.9377283e-05
-2.0301582e-05
-2.1190574e-05
-2.2047802e-05
-2.2862668e-05
-2.3637756e-05
-2.4369717e-05
-2.5052294e-05
-2.5686882e-05
-2.6267402e-05
-2.6797061e-05
-2.7267384e-05
-2.7686474e-05
-2.8047399e-05
-2.8348153e-05
-2.8597487e-05
-2.878778e-05
-2.8923256e-05
-2.9006375e-05
-2.9035202e-05
-2.9017026e-05
-2.8945118e-05
-2.8831017e-05
-2.867615e-05
-2.8483518e-05
-2.8251644e-05
-2.799401e-05
-2.7701951e-05
-2.7387849e-05
-2.7053564e-05
-2.6702486e-05
-2.6336967e-05
-2.5959348e-05
-2.5575249e-05
-2.5190446e-05
-2.4805104e-05
-2.4420658e-05
-2.4042674e-05
-2.3671918e-05
-2.330943e-05
-2.2963664e-05
-2.2630894e-05
-2.2315058e-05
-2.2011824e-05
-2.1731784e-05
-2.1468294e-05
-2.1225619e-05
-2.1003528e-05
-2.0800653e-05
-2.0618192e-05
-2.0456746e-05
-2.0312812e-05
-2.0188546e-05
-2.0084696e-05
-2.0000522e-05
-1.9928234e-05
-1.9872805e-05
-1.9834224e-05
-1.9806987e-05
-1.9792347e-05
-1.9786812e-05
-1.9787995e-05
-1.9802507e-05
-1.9816068e-05
-1.9840378e-05
-1.986591e-05
-1.9890368e-05
-1.9917197e-05
-1.9945665e-05
-1.9969345e-05
-1.9988767e-05
-2.000762e-05
-2.0020249e-05
-2.002332e-05
-2.0021477e-05
-2.0013567e-05
-1.9994926e-05
-1.9970351e-05
-1.9934966e-05
-1.9890264e-05
-1.983507e-05
-1.9772461e-05
-1.9695417e-05
-1.961e-05
-1.9512186e-05
-1.9407866e-05
-1.9290069e-05
-1.9164757e-05
-1.9025898e-05
-1.8880618e-05
-1.8722811e-05
-1.855734e-05
-1.83831e-05
-1.819707e-05
-1.8004136e-05
-1.7803911e-05
-1.7592841e-05
-1.7378067e-05
-1.7149711e-05
-1.6919067e-05
-1.6678831e-05
-1.6432751e-05
-1.6179607e-05
-1.5920313e-05
-1.565539e-05
-1.5384569e-05
-1.5109888e-05
-1.4827467e-05
-1.4541561e-05
-1.4249436e-05
-1.3955011e-05
-1.3654363e-05
-1.3351862e-05
-1.3042476e-05
-1.2732726e-05
-1.2416782e-05
-1.2102078e-05
-1.1780405e-05
-1.1458005e-05
-1.1131341e-05
-1.0802425e-05
-1.0470048e-05
-1.0138371e-05
-9.8027226e-06
-9.4616132e-06
-9.1220256e-06
-8.776212e-06
-8.4382825e-06
-8.1072633e-06
-7.7826861e-06
-7.4466325e-06
-7.1124766e-06
-6.7772047e-06
-6.4458266e-06
-6.1131886e-06
-5.78333e-06
-5.4578928e-06
-5.1314337e-06
-4.8089053e-06
-4.4896496e-06
-4.17658e-06
-3.8629776e-06
-3.5543628e-06
-3.2503348e-06
-2.9513251e-06
-2.6564815e-06
-2.3672959e-06
-2.0819474e-06
-1.8055633e-06
-1.530748e-06
-1.2640112e-06
-1.0028894e-06
-7.5003042e-07
-4.9836287e-07
-2.5723594e-07
-2.0609832e-08
2.0763887e-07
4.2666767e-07
6.4068151e-07
8.5021098e-07
1.0499595e-06
1.2421438e-06
1.4285525e-06
1.6076126e-06
1.7801193e-06
1.9439742e-06
2.0988841e-06
2.2517613e-06
2.3941245e-06
2.532847e-06
2.6644313e-06
2.7866541e-06
2.902642e-06
3.0169542e-06
3.1198264e-06
3.2214612e-06
3.3135026e-06
3.4025796e-06
3.4853707e-06
3.5625782e-06
3.6348836e-06
3.7038638e-06
3.7660285e-06
3.8255215e-06
3.8817206e-06
3.9309718e-06
3.9782007e-06
4.0249863e-06
4.0650298e-06
4.1013971e-06
4.1346087e-06
4.1670759e-06
4.1949471e-06
4.2226013e-06
4.2468369e-06
4.2679813e-06
4.2893437e-06
4.3068124e-06
4.3236877e-06
4.3378155e-06
4.350496e-06
4.3651162e-06
4.3750793e-06
4.3853939e-06
4.3959598e-06
4.4017878e-06
4.4099733e-06
4.4171144e-06
4.4197992e-06
4.425649e-06
4.4310653e-06
4.4333168e-06
4.4363551e-06
4.4407544e-06
4.4422822e-06
4.4449915e-06
4.4483813e-06
4.4481967e-06
4.4493068e-06
4.4516882e-06
4.4544448e-06
4.4538285e-06
4.455667e-06
4.4542775e-06
4.4559061e-06