/*--------------------------------*- C++ -*----------------------------------*\
| =========                 |                                                 |
| \\      /  F ield         | OpenFOAM: The Open Source CFD Toolbox           |
|  \\    /   O peration     | Version:  2106                                  |
|   \\  /    A nd           | Website:  www.openfoam.com                      |
|    \\/     M anipulation  |                                                 |
\*---------------------------------------------------------------------------*/
FoamFile
{
    version     2.0;
    format      ascii;
    arch        "LSB;label=32;scalar=64";
    class       surfaceScalarField;
    location    "30";
    object      phi;
}
// * * * * * * * * * * * * * * * * * * * * * * * * * * * * * * * * * * * * * //

dimensions      [0 3 -1 0 0 0 0];

oriented        oriented;

internalField   nonuniform List<scalar> 
119300
(
-8.948675e-12
8.9486589e-12
-2.0316894e-11
1.136824e-11
-2.6148238e-11
5.8317125e-12
-2.2233875e-11
-3.9140199e-12
-7.1163791e-12
-1.5117285e-11
1.9624318e-11
-2.6740515e-11
5.7782963e-11
-3.8158184e-11
1.0682384e-10
-4.9040548e-11
1.6607401e-10
-5.9249697e-11
2.3482761e-10
-6.8753077e-11
3.1239709e-10
-7.7568892e-11
3.9813838e-10
-8.5740821e-11
4.9146425e-10
-9.3325403e-11
5.9184912e-10
-1.0038443e-10
6.9882916e-10
-1.0697924e-10
8.1199814e-10
-1.1316848e-10
9.3100494e-10
-1.1900617e-10
1.0555459e-09
-1.2454026e-10
1.1853529e-09
-1.298063e-10
1.3201836e-09
-1.3482956e-10
1.4598141e-09
-1.3962975e-10
1.6040337e-09
-1.4421839e-10
1.7526302e-09
-1.4859561e-10
1.9053873e-09
-1.5275581e-10
2.0620759e-09
-1.5668779e-10
2.2224466e-09
-1.6036973e-10
2.3862235e-09
-1.6377608e-10
2.5530907e-09
-1.6686607e-10
2.7226869e-09
-1.695953e-10
2.8946088e-09
-1.7192081e-10
3.0684097e-09
-1.7379993e-10
3.243601e-09
-1.7519057e-10
3.4196538e-09
-1.7605202e-10
3.5960018e-09
-1.7634683e-10
3.772045e-09
-1.7604196e-10
3.947156e-09
-1.7511008e-10
4.1206875e-09
-1.7353039e-10
4.2919787e-09
-1.7128989e-10
4.4603642e-09
-1.6838443e-10
4.6251831e-09
-1.6481759e-10
4.7857866e-09
-1.6060256e-10
4.9415486e-09
-1.5576092e-10
5.0918727e-09
-1.503231e-10
5.2362012e-09
-1.4432732e-10
5.3740215e-09
-1.378194e-10
5.5048733e-09
-1.3085093e-10
5.6283539e-09
-1.2347942e-10
5.7441215e-09
-1.1576674e-10
5.8518996e-09
-1.0777728e-10
5.9514784e-09
-9.9577639e-11
6.0427146e-09
-9.123548e-11
6.1255326e-09
-8.2816934e-11
6.1999212e-09
-7.4387829e-11
6.2659329e-09
-6.6010823e-11
6.3236786e-09
-5.7744893e-11
6.3733253e-09
-4.9645982e-11
6.4150903e-09
-4.1764258e-11
6.4492365e-09
-3.4145395e-11
6.4760668e-09
-2.6829471e-11
6.4959187e-09
-1.9851005e-11
6.509158e-09
-1.3238749e-11
6.5161746e-09
-7.0161378e-12
6.5173906e-09
-1.2154617e-12
6.5131812e-09
4.2101715e-12
6.5040259e-09
9.1557817e-12
6.4903281e-09
1.3698479e-11
6.4725194e-09
1.7809165e-11
6.4510257e-09
2.1494468e-11
6.4262625e-09
2.4763736e-11
6.3986347e-09
2.7628392e-11
6.3685329e-09
3.0102403e-11
6.3363319e-09
3.2201517e-11
6.3023883e-09
3.3944167e-11
6.2670397e-09
3.5349281e-11
6.2306035e-09
3.6436802e-11
6.1933769e-09
3.7227148e-11
6.1556364e-09
3.7741158e-11
6.1176373e-09
3.7999726e-11
6.079613e-09
3.802475e-11
6.0417752e-09
3.7838386e-11
6.0043147e-09
3.7460874e-11
5.9674025e-09
3.6912642e-11
5.9311904e-09
3.6212351e-11
5.8958115e-09
3.5379086e-11
5.8613813e-09
3.4430937e-11
5.8279964e-09
3.3385157e-11
5.7957386e-09
3.2258071e-11
5.7646744e-09
3.1064569e-11
5.7348561e-09
2.9818948e-11
5.7063228e-09
2.8533913e-11
5.6791015e-09
2.7221577e-11
5.6532087e-09
2.5893383e-11
5.628649e-09
2.4560001e-11
5.6054185e-09
2.3230899e-11
5.5835049e-09
2.1914241e-11
5.5628881e-09
2.061716e-11
5.5435424e-09
1.9346355e-11
5.5254355e-09
1.8107398e-11
5.5085303e-09
1.6905533e-11
5.492785e-09
1.574568e-11
5.4781544e-09
1.4631151e-11
5.46459e-09
1.356479e-11
5.452041e-09
1.2549264e-11
5.4404552e-09
1.1586175e-11
5.4297788e-09
1.0676625e-11
5.4199577e-09
9.8214017e-12
5.4109373e-09
9.0206621e-12
5.4026632e-09
8.2743912e-12
5.3950807e-09
7.582548e-12
5.3881369e-09
6.9443826e-12
5.3817784e-09
6.3587056e-12
5.3759546e-09
5.8242074e-12
5.3706156e-09
5.3391055e-12
5.3657141e-09
4.9019328e-12
5.3612038e-09
4.5103663e-12
5.3570414e-09
4.1626782e-12
5.3531847e-09
3.8567913e-12
5.3495945e-09
3.5903071e-12
5.3462338e-09
3.3610636e-12
5.3430672e-09
3.1667131e-12
5.3400627e-09
3.004707e-12
5.3371898e-09
2.8730183e-12
5.334421e-09
2.7691846e-12
5.3317306e-09
2.6906194e-12
5.3290954e-09
2.6353167e-12
5.3264945e-09
2.6011339e-12
5.3239088e-09
2.5857475e-12
5.3213215e-09
2.5874911e-12
5.3187178e-09
2.6039655e-12
5.3160844e-09
2.6335487e-12
5.3134101e-09
2.6742686e-12
5.3106856e-09
2.724733e-12
5.3079026e-09
2.7831251e-12
5.3050547e-09
2.8482013e-12
5.3021368e-09
2.9182804e-12
5.2991447e-09
2.9922453e-12
5.2960758e-09
3.0691146e-12
5.2929284e-09
3.1475175e-12
5.2897017e-09
3.2267834e-12
5.2863959e-09
3.306129e-12
5.2830117e-09
3.3845368e-12
5.2795503e-09
3.4613687e-12
5.2760145e-09
3.5360462e-12
5.2724064e-09
3.6082633e-12
5.2687292e-09
3.677384e-12
5.2649861e-09
3.7432707e-12
5.2611808e-09
3.8055666e-12
5.2573171e-09
3.8640232e-12
5.2533986e-09
3.9183193e-12
5.2494301e-09
3.9687928e-12
5.2454155e-09
4.0151449e-12
5.2413587e-09
4.0571495e-12
5.2372635e-09
4.095215e-12
5.2331344e-09
4.1293122e-12
5.2289752e-09
4.1596037e-12
5.2247894e-09
4.185923e-12
5.2205808e-09
4.2089137e-12
5.2163529e-09
4.2283198e-12
5.2121084e-09
4.2445978e-12
5.2078508e-09
4.2578867e-12
5.2035825e-09
4.2683383e-12
5.1993065e-09
4.2761457e-12
5.195025e-09
4.281703e-12
5.1907399e-09
4.2853274e-12
5.1864531e-09
4.2869846e-12
5.1821662e-09
4.2870185e-12
5.1778807e-09
4.2857381e-12
5.1735975e-09
4.2831062e-12
5.1693182e-09
4.2796313e-12
5.1650431e-09
4.2752984e-12
5.1607729e-09
4.270415e-12
5.1565082e-09
4.2650044e-12
5.1522488e-09
4.2593856e-12
5.1479951e-09
4.253876e-12
5.143747e-09
4.2482301e-12
5.1395044e-09
4.2429155e-12
5.1352669e-09
4.2377651e-12
5.1310338e-09
4.2330155e-12
5.1268049e-09
4.2291019e-12
5.1225796e-09
4.2254983e-12
5.1183571e-09
4.2225488e-12
5.1141368e-09
4.2204514e-12
5.1099178e-09
4.2190116e-12
5.1056995e-09
4.2184239e-12
5.1014811e-09
4.2185873e-12
5.0972614e-09
4.2197985e-12
5.0930398e-09
4.2215931e-12
5.0888156e-09
4.224433e-12
5.0845877e-09
4.2279349e-12
5.0803555e-09
4.2322621e-12
5.0761184e-09
4.2374446e-12
5.0718753e-09
4.2431714e-12
5.0676256e-09
4.2497881e-12
5.0633689e-09
4.2569612e-12
5.0591044e-09
4.2646477e-12
5.0548314e-09
4.2729847e-12
5.0505496e-09
4.2818944e-12
5.0462586e-09
4.2910623e-12
5.0419578e-09
4.3006628e-12
5.0376471e-09
4.3108073e-12
5.0333261e-09
4.3209706e-12
5.0289948e-09
4.3313951e-12
5.0246531e-09
4.342014e-12
5.0203005e-09
4.3525402e-12
5.0159373e-09
4.3631686e-12
5.0115636e-09
4.3738376e-12
5.0071794e-09
4.3843589e-12
5.0027846e-09
4.3947042e-12
4.9983798e-09
4.4050364e-12
4.993965e-09
4.4148669e-12
4.9895403e-09
4.4246023e-12
4.9851063e-09
4.4340289e-12
4.9806633e-09
4.4433247e-12
4.9762114e-09
4.4518385e-12
4.9717512e-09
4.4600753e-12
4.9672832e-09
4.4681159e-12
4.9628075e-09
4.4756792e-12
4.9583247e-09
4.4826789e-12
4.9538356e-09
4.4893833e-12
4.9493401e-09
4.4954846e-12
4.9448388e-09
4.5012993e-12
4.9403323e-09
4.5064685e-12
4.9358211e-09
4.5113544e-12
4.9313051e-09
4.5158261e-12
4.9267855e-09
4.5198719e-12
4.922262e-09
4.5234779e-12
4.9177353e-09
4.5267499e-12
4.9132056e-09
4.5297502e-12
4.9086731e-09
4.5324208e-12
4.9041382e-09
4.5348849e-12
4.8996015e-09
4.5370407e-12
4.8950626e-09
4.5388693e-12
4.8905219e-09
4.5405999e-12
4.8859797e-09
4.5422963e-12
4.8814358e-09
4.5437932e-12
4.8768904e-09
4.5453918e-12
4.8723433e-09
4.5469666e-12
4.8677948e-09
4.548408e-12
4.8632444e-09
4.5502281e-12
4.8586923e-09
4.5521696e-12
4.8541383e-09
4.5541661e-12
4.8495819e-09
4.5562944e-12
4.845023e-09
4.5587999e-12
4.8404613e-09
4.561647e-12
4.8358967e-09
4.5647699e-12
4.8313285e-09
4.5681965e-12
4.8267564e-09
4.5720939e-12
4.8221801e-09
4.576362e-12
4.8175989e-09
4.5811849e-12
4.8130124e-09
4.5865656e-12
4.8084201e-09
4.5923487e-12
4.8038213e-09
4.5986491e-12
4.7992158e-09
4.6054712e-12
4.7946026e-09
4.6130271e-12
4.7899814e-09
4.6211164e-12
4.7853517e-09
4.629771e-12
4.7807125e-09
4.6390177e-12
4.7760637e-09
4.6488731e-12
4.7714044e-09
4.659458e-12
4.7667338e-09
4.6704022e-12
4.7620519e-09
4.681943e-12
4.7573575e-09
4.6943128e-12
4.7526503e-09
4.7070066e-12
4.7479299e-09
4.7204323e-12
4.7431955e-09
4.7341821e-12
4.7384469e-09
4.7485164e-12
4.7336833e-09
4.7633056e-12
4.7289045e-09
4.7787063e-12
4.7241101e-09
4.7944055e-12
4.7192995e-09
4.8105847e-12
4.7144725e-09
4.827095e-12
4.7096286e-09
4.843884e-12
4.7047674e-09
4.8611451e-12
4.6998891e-09
4.8785e-12
4.694993e-09
4.8960554e-12
4.6900791e-09
4.9138622e-12
4.6851472e-09
4.93191e-12
4.6801972e-09
4.9499907e-12
4.6752291e-09
4.9680703e-12
4.6702426e-09
4.9862877e-12
4.6652381e-09
5.0046554e-12
4.6602154e-09
5.0227683e-12
4.6551745e-09
5.0409191e-12
4.6501156e-09
5.0589182e-12
4.6450386e-09
5.0769483e-12
4.6399439e-09
5.094732e-12
4.6348316e-09
5.1124183e-12
4.629702e-09
5.1297608e-12
4.6245549e-09
5.1469221e-12
4.619391e-09
5.1639398e-12
4.6142103e-09
5.1806283e-12
4.6090132e-09
5.1972279e-12
4.6037998e-09
5.2132807e-12
4.5985707e-09
5.2291471e-12
4.593326e-09
5.2447379e-12
4.5880661e-09
5.2599304e-12
4.5827911e-09
5.2748886e-12
4.5775019e-09
5.2894271e-12
4.5721981e-09
5.3036637e-12
4.5668804e-09
5.3174908e-12
4.5615492e-09
5.3311224e-12
4.5562047e-09
5.344447e-12
4.5508473e-09
5.3575879e-12
4.5454769e-09
5.3701829e-12
4.5400945e-09
5.3826677e-12
4.5346998e-09
5.3947744e-12
4.5292931e-09
5.4066395e-12
4.523875e-09
5.4182899e-12
4.5184456e-09
5.4295758e-12
4.513005e-09
5.4405224e-12
4.5075534e-09
5.4514973e-12
4.5020911e-09
5.4622031e-12
4.4966182e-09
5.4728503e-12
4.4911346e-09
5.4832961e-12
4.4856409e-09
5.4937014e-12
4.4801369e-09
5.5038724e-12
4.4746227e-09
5.5139987e-12
4.4690985e-09
5.5240373e-12
4.4635643e-09
5.5342991e-12
4.4580199e-09
5.5444565e-12
4.4524654e-09
5.5545315e-12
4.4469008e-09
5.5647215e-12
4.441326e-09
5.5748149e-12
4.435741e-09
5.5850849e-12
4.4301456e-09
5.5956368e-12
4.4245396e-09
5.6061391e-12
4.4189229e-09
5.6167617e-12
4.4132953e-09
5.6276297e-12
4.4076569e-09
5.6388073e-12
4.4020068e-09
5.6499156e-12
4.3963454e-09
5.6615183e-12
4.3906719e-09
5.6733324e-12
4.3849866e-09
5.6854852e-12
4.3792888e-09
5.6978775e-12
4.3735783e-09
5.710444e-12
4.367855e-09
5.723465e-12
4.3621182e-09
5.7368612e-12
4.3563678e-09
5.7504554e-12
4.3506033e-09
5.7645325e-12
4.3448246e-09
5.7788265e-12
4.3390313e-09
5.7936105e-12
4.3332226e-09
5.8086559e-12
4.3273984e-09
5.8241784e-12
4.3215585e-09
5.8400476e-12
4.3157022e-09
5.8561967e-12
4.3098294e-09
5.8728455e-12
4.3039396e-09
5.8897671e-12
4.2980325e-09
5.907247e-12
4.2921075e-09
5.9249813e-12
4.2861646e-09
5.943004e-12
4.2802034e-09
5.9613719e-12
4.2742232e-09
5.9801282e-12
4.2682239e-09
5.9992747e-12
4.2622053e-09
6.0185969e-12
4.2561671e-09
6.0384222e-12
4.2501087e-09
6.05838e-12
4.2440299e-09
6.07875e-12
4.2379307e-09
6.0993623e-12
4.2318104e-09
6.1203082e-12
4.2256689e-09
6.1413557e-12
4.2195061e-09
6.1627815e-12
4.2133219e-09
6.1842224e-12
4.2071158e-09
6.2060723e-12
4.2008877e-09
6.2279872e-12
4.1946378e-09
6.2501199e-12
4.1883656e-09
6.2724325e-12
4.182071e-09
6.2947252e-12
4.1757538e-09
6.3171668e-12
4.169414e-09
6.3399327e-12
4.1630514e-09
6.3625927e-12
4.156666e-09
6.385351e-12
4.1502579e-09
6.4080588e-12
4.1438269e-09
6.4310237e-12
4.1373732e-09
6.4538991e-12
4.1308965e-09
6.4768025e-12
4.1243969e-09
6.4995582e-12
4.1178744e-09
6.5224132e-12
4.1113293e-09
6.5451985e-12
4.1047612e-09
6.5680326e-12
4.0981704e-09
6.5906586e-12
4.091557e-09
6.6133605e-12
4.0849207e-09
6.6358655e-12
4.0782621e-09
6.6584872e-12
4.071581e-09
6.6809283e-12
4.0648776e-09
6.7034186e-12
4.0581519e-09
6.7257264e-12
4.0514037e-09
6.7480112e-12
4.0446336e-09
6.7701706e-12
4.0378416e-09
6.7921601e-12
4.0310275e-09
6.8140145e-12
4.0241917e-09
6.8358854e-12
4.017334e-09
6.857729e-12
4.0104546e-09
6.8794492e-12
4.0035533e-09
6.901109e-12
3.9966306e-09
6.9228277e-12
3.9896861e-09
6.9442201e-12
3.9827201e-09
6.9658455e-12
3.9757327e-09
6.9872985e-12
3.9687236e-09
7.0089832e-12
3.9616931e-09
7.0304231e-12
3.954641e-09
7.0519573e-12
3.9475674e-09
7.073538e-12
3.9404721e-09
7.0950372e-12
3.933355e-09
7.1169234e-12
3.9262165e-09
7.1386325e-12
3.9190559e-09
7.1603641e-12
3.9118735e-09
7.1823862e-12
3.9046688e-09
7.2045618e-12
3.897442e-09
7.2265569e-12
3.890193e-09
7.2489013e-12
3.8829213e-09
7.2714085e-12
3.875627e-09
7.2940227e-12
3.86831e-09
7.3168767e-12
3.8609699e-09
7.3399094e-12
3.8536068e-09
7.3630552e-12
3.8462203e-09
7.3864412e-12
3.8388101e-09
7.4100364e-12
3.8313761e-09
7.4339084e-12
3.8239182e-09
7.4577445e-12
3.8164359e-09
7.481892e-12
3.8089293e-09
7.5064056e-12
3.8013982e-09
7.5310887e-12
3.7938422e-09
7.5560721e-12
3.786261e-09
7.5811043e-12
3.7786546e-09
7.6064263e-12
3.7710225e-09
7.6318786e-12
3.7633648e-09
7.6577317e-12
3.7556809e-09
7.6835897e-12
3.747971e-09
7.7098064e-12
3.7402346e-09
7.7362645e-12
3.7324716e-09
7.7629275e-12
3.7246814e-09
7.7898268e-12
3.7168645e-09
7.8169901e-12
3.7090201e-09
7.8443618e-12
3.7011481e-09
7.8721105e-12
3.6932482e-09
7.8998826e-12
3.6853203e-09
7.9280013e-12
3.6773637e-09
7.9563525e-12
3.6693785e-09
7.9851928e-12
3.6613643e-09
8.0140725e-12
3.6533208e-09
8.0434879e-12
3.6452474e-09
8.073205e-12
3.637144e-09
8.1032764e-12
3.6290101e-09
8.1336323e-12
3.6208452e-09
8.1645883e-12
3.6126491e-09
8.1960134e-12
3.6044211e-09
8.2279577e-12
3.5961604e-09
8.2603486e-12
3.5878669e-09
8.293381e-12
3.5795398e-09
8.3268275e-12
3.5711784e-09
8.3613248e-12
3.562782e-09
8.3962578e-12
3.5543499e-09
8.4318858e-12
3.5458813e-09
8.4683782e-12
3.5373752e-09
8.505808e-12
3.5288311e-09
8.544139e-12
3.5202476e-09
8.5832858e-12
3.5116239e-09
8.6235667e-12
3.5029591e-09
8.6649128e-12
3.4942514e-09
8.7073233e-12
3.4855003e-09
8.7509176e-12
3.4767046e-09
8.7958604e-12
3.4678628e-09
8.8420026e-12
3.4589735e-09
8.8892931e-12
3.4500354e-09
8.9381355e-12
3.441047e-09
8.9884052e-12
3.4320067e-09
9.0400321e-12
3.4229135e-09
9.0932227e-12
3.4137655e-09
9.1479863e-12
3.4045612e-09
9.2043953e-12
3.3952986e-09
9.2623817e-12
3.3859768e-09
9.3218086e-12
3.3765938e-09
9.3831646e-12
3.367148e-09
9.4459502e-12
3.3576377e-09
9.510296e-12
3.3480611e-09
9.5764113e-12
3.3384169e-09
9.6441985e-12
3.3287033e-09
9.7134388e-12
3.318919e-09
9.7843821e-12
3.3090625e-09
9.8565857e-12
3.2991322e-09
9.9302931e-12
3.289127e-09
1.0005391e-11
3.2790454e-09
1.0081667e-11
3.2688865e-09
1.0159048e-11
3.2586492e-09
1.0237515e-11
3.2483326e-09
1.0316623e-11
3.2379359e-09
1.0396521e-11
3.2274591e-09
1.0477103e-11
3.2169013e-09
1.0558019e-11
3.2062625e-09
1.0639067e-11
3.1955426e-09
1.0720004e-11
3.1847423e-09
1.0800624e-11
3.1738621e-09
1.0880545e-11
3.1629026e-09
1.095977e-11
3.1518649e-09
1.1037863e-11
3.1407506e-09
1.1114633e-11
3.129561e-09
1.1189674e-11
3.1182988e-09
1.1262542e-11
3.1069655e-09
1.1333266e-11
3.0955643e-09
1.1401406e-11
3.084098e-09
1.1466626e-11
3.0725698e-09
1.1528641e-11
3.0609832e-09
1.1586945e-11
3.049342e-09
1.1641492e-11
3.0376508e-09
1.1691718e-11
3.0259138e-09
1.173737e-11
3.0141358e-09
1.1778379e-11
3.0023218e-09
1.1814327e-11
2.9904771e-09
1.1845251e-11
2.9786066e-09
1.187091e-11
2.9667162e-09
1.1890866e-11
2.9548114e-09
1.1905356e-11
2.9428979e-09
1.1914299e-11
2.9309808e-09
1.1917556e-11
2.919066e-09
1.1915515e-11
2.9071584e-09
1.1908289e-11
2.8952631e-09
1.1896048e-11
2.8833847e-09
1.1879169e-11
2.8715273e-09
1.1858071e-11
2.8596945e-09
1.1833478e-11
2.8478893e-09
1.1806152e-11
2.8361134e-09
1.1776633e-11
2.8243681e-09
1.1746204e-11
2.8126534e-09
1.1715723e-11
2.8009683e-09
1.1686266e-11
2.7893094e-09
1.165959e-11
2.777673e-09
1.1637197e-11
2.7660533e-09
1.1620667e-11
2.7544423e-09
1.161198e-11
2.7428302e-09
1.1613139e-11
2.7312046e-09
1.1626613e-11
2.7195512e-09
1.1654556e-11
2.7078526e-09
1.1699627e-11
2.6960888e-09
1.1764782e-11
2.6842374e-09
1.1852885e-11
2.6722716e-09
1.1966974e-11
2.6601623e-09
1.2110476e-11
2.6478766e-09
1.2286906e-11
2.635378e-09
1.2499883e-11
2.6226263e-09
1.2752974e-11
2.6095774e-09
1.3050163e-11
2.5961833e-09
1.3395758e-11
2.5823913e-09
1.3793317e-11
2.5681456e-09
1.4247256e-11
2.5533853e-09
1.4761815e-11
2.5380457e-09
1.5341063e-11
2.5220577e-09
1.598949e-11
2.5053483e-09
1.6711015e-11
2.4878399e-09
1.751013e-11
2.4694513e-09
1.8390271e-11
2.4500976e-09
1.9355488e-11
2.4296894e-09
2.0409767e-11
2.4081348e-09
2.1556366e-11
2.3853381e-09
2.2798316e-11
2.3612013e-09
2.4138546e-11
2.3356234e-09
2.5579668e-11
2.3085014e-09
2.7123641e-11
2.2797317e-09
2.877183e-11
2.2492086e-09
3.0525207e-11
2.2168266e-09
3.2383964e-11
2.1824807e-09
3.4347889e-11
2.1460669e-09
3.6415707e-11
2.1074837e-09
3.8585259e-11
2.0666323e-09
4.0853447e-11
2.0234186e-09
4.3215865e-11
1.9777538e-09
4.5666987e-11
1.9295561e-09
4.8199867e-11
1.878752e-09
5.0805966e-11
1.8252793e-09
5.347507e-11
1.7690869e-09
5.6194572e-11
1.7101393e-09
5.8950053e-11
1.6484174e-09
6.1724155e-11
1.5839223e-09
6.4497407e-11
1.5166785e-09
6.7246306e-11
1.4467368e-09
6.9944349e-11
1.3741783e-09
7.2560749e-11
1.2991197e-09
7.5061076e-11
1.2217165e-09
7.7405627e-11
1.1421693e-09
7.9549907e-11
1.0607282e-09
8.144334e-11
9.7770052e-10
8.3030182e-11
8.9345527e-10
8.4247831e-11
8.084299e-10
8.5027684e-11
7.2313789e-10
8.529461e-11
6.3817361e-10
8.496679e-11
5.5421936e-10
8.3956666e-11
4.7205026e-10
8.2171787e-11
3.9253699e-10
7.951539e-11
3.1664948e-10
7.5889792e-11
2.454528e-10
7.1199186e-11
1.8010016e-10
6.5354976e-11
1.2181633e-10
5.8286319e-11
7.186551e-11
4.9953113e-11
3.1498499e-11
4.0369333e-11
1.8288741e-12
2.9672011e-11
-1.644868e-11
1.8279986e-11
-2.3176028e-11
6.7294388e-12
-1.939579e-11
-3.778245e-12
-8.9844569e-12
-1.0408844e-11
-8.9834505e-12
-1.1316444e-11
2.0265312e-11
-2.1403002e-11
2.1454768e-11
-1.5478931e-11
-9.2142478e-14
1.407577e-11
-3.3468947e-11
7.1263714e-11
-7.2305087e-11
1.5754211e-10
-1.1301877e-10
2.7288518e-10
-1.53501e-10
4.1644776e-10
-1.9260265e-10
5.8694169e-10
-2.2974298e-10
7.8286963e-10
-2.6468099e-10
1.0026773e-09
-2.9737619e-10
1.2448412e-09
-3.2790405e-10
1.507924e-09
-3.5640729e-10
1.7906021e-09
-3.8306203e-10
2.0916789e-09
-4.0805541e-10
2.4100842e-09
-4.3157335e-10
2.7448719e-09
-4.5379299e-10
3.0952064e-09
-4.7487389e-10
3.4603375e-09
-4.9493671e-10
3.8395761e-09
-5.1406763e-10
4.2322807e-09
-5.3233338e-10
4.6378387e-09
-5.4977572e-10
5.0556364e-09
-5.663919e-10
5.485042e-09
-5.8216061e-10
5.9253915e-09
-5.970361e-10
6.3759623e-09
-6.1093944e-10
6.8359611e-09
-6.237739e-10
7.3044915e-09
-6.3539532e-10
7.7805447e-09
-6.4564754e-10
8.2630022e-09
-6.5437744e-10
8.7506352e-09
-6.6143226e-10
9.2421047e-09
-6.6665928e-10
9.735966e-09
-6.6991203e-10
1.0230676e-08
-6.7105578e-10
1.0724606e-08
-6.6997083e-10
1.1216054e-08
-6.6655758e-10
1.1703267e-08
-6.6074143e-10
1.2184453e-08
-6.5247569e-10
1.2657813e-08
-6.417424e-10
1.3121553e-08
-6.2855619e-10
1.3573914e-08
-6.1296267e-10
1.4013195e-08
-5.9503999e-10
1.443777e-08
-5.7489692e-10
1.4846114e-08
-5.5267089e-10
1.5236823e-08
-5.285267e-10
1.5608625e-08
-5.0265202e-10
1.5960401e-08
-4.7525451e-10
1.6291193e-08
-4.4655799e-10
1.6600215e-08
-4.1679796e-10
1.6886856e-08
-3.8621725e-10
1.7150683e-08
-3.5506194e-10
1.7391444e-08
-3.2357696e-10
1.7609059e-08
-2.9200248e-10
1.7803621e-08
-2.6057092e-10
1.7975379e-08
-2.2950242e-10
1.8124737e-08
-1.99003e-10
1.8252236e-08
-1.6926291e-10
1.8358545e-08
-1.4045303e-10
1.8444442e-08
-1.1272576e-10
1.8510805e-08
-8.6213249e-11
1.8558594e-08
-6.102749e-11
1.8588841e-08
-3.7261185e-11
1.8602612e-08
-1.4985804e-11
1.8601047e-08
5.7751945e-12
1.8585293e-08
2.4911412e-11
1.8556496e-08
4.249574e-11
1.8515825e-08
5.8481115e-11
1.8464434e-08
7.2886078e-11
1.840346e-08
8.5738402e-11
1.8334013e-08
9.7075554e-11
1.8257171e-08
1.0694462e-10
1.8173972e-08
1.1540168e-10
1.8085407e-08
1.2250963e-10
1.799242e-08
1.2833698e-10
1.7895901e-08
1.3295606e-10
1.7796688e-08
1.3644071e-10
1.7695563e-08
1.3886658e-10
1.7593252e-08
1.403114e-10
1.7490422e-08
1.408557e-10
1.7387681e-08
1.4057936e-10
1.7285583e-08
1.3956008e-10
1.7184624e-08
1.3787153e-10
1.7085251e-08
1.3558616e-10
1.6987856e-08
1.3277454e-10
1.6892783e-08
1.29505e-10
1.6800325e-08
1.2584302e-10
1.6710734e-08
1.2184977e-10
1.6624216e-08
1.1758288e-10
1.654094e-08
1.1309606e-10
1.6461035e-08
1.0843917e-10
1.6384598e-08
1.0365878e-10
1.6311693e-08
9.8798606e-11
1.6242354e-08
9.3899479e-11
1.6176587e-08
8.8998003e-11
1.6114375e-08
8.4126431e-11
1.605568e-08
7.9313074e-11
1.6000443e-08
7.4583278e-11
1.594859e-08
6.9960807e-11
1.590003e-08
6.546593e-11
1.5854659e-08
6.111708e-11
1.5812362e-08
5.6928482e-11
1.5773015e-08
5.2912483e-11
1.5736485e-08
4.9078918e-11
1.5702637e-08
4.543513e-11
1.5671327e-08
4.1986434e-11
1.5642412e-08
3.8736587e-11
1.5615746e-08
3.5687045e-11
1.5591183e-08
3.2838692e-11
1.5568574e-08
3.0191213e-11
1.5547776e-08
2.7742684e-11
1.5528646e-08
2.548959e-11
1.5511044e-08
2.342701e-11
1.5494833e-08
2.1549748e-11
1.5479884e-08
1.9851608e-11
1.5466069e-08
1.8325533e-11
1.5453268e-08
1.6964357e-11
1.5441365e-08
1.5760211e-11
1.543025e-08
1.4705282e-11
1.541982e-08
1.379162e-11
1.5409976e-08
1.3010464e-11
1.5400628e-08
1.235317e-11
1.5391691e-08
1.1810772e-11
1.5383085e-08
1.137457e-11
1.537474e-08
1.1036248e-11
1.5366588e-08
1.0787351e-11
1.535857e-08
1.061971e-11
1.5350631e-08
1.0525367e-11
1.5342721e-08
1.049658e-11
1.5334799e-08
1.0526324e-11
1.5326825e-08
1.060714e-11
1.5318767e-08
1.073251e-11
1.5310596e-08
1.0896127e-11
1.5302288e-08
1.1091754e-11
1.5293822e-08
1.1314126e-11
1.5285183e-08
1.1557983e-11
1.5276357e-08
1.1818298e-11
1.5267335e-08
1.2090965e-11
1.5258111e-08
1.2371725e-11
1.5248681e-08
1.2657197e-11
1.5239043e-08
1.2943897e-11
1.5229199e-08
1.3229073e-11
1.5219151e-08
1.3509694e-11
1.5208904e-08
1.3783697e-11
1.5198463e-08
1.4049278e-11
1.5187836e-08
1.4304893e-11
1.5177031e-08
1.4548555e-11
1.5166057e-08
1.4779747e-11
1.5154924e-08
1.4997257e-11
1.5143642e-08
1.5200629e-11
1.5132221e-08
1.5389504e-11
1.5120673e-08
1.5563551e-11
1.5109008e-08
1.5722512e-11
1.5097237e-08
1.5866663e-11
1.508537e-08
1.5996322e-11
1.5073418e-08
1.6111628e-11
1.5061391e-08
1.6213253e-11
1.5049299e-08
1.6301397e-11
1.503715e-08
1.6377018e-11
1.5024954e-08
1.6440796e-11
1.5012719e-08
1.6493458e-11
1.5000452e-08
1.6535435e-11
1.498816e-08
1.6568253e-11
1.497585e-08
1.6592236e-11
1.4963528e-08
1.6608045e-11
1.4951198e-08
1.6617024e-11
1.4938866e-08
1.6619718e-11
1.4926534e-08
1.6616919e-11
1.4914208e-08
1.6609724e-11
1.4901889e-08
1.6598752e-11
1.4889579e-08
1.6584591e-11
1.4877282e-08
1.6568331e-11
1.4864997e-08
1.6550167e-11
1.4852725e-08
1.653089e-11
1.4840468e-08
1.6511379e-11
1.4828224e-08
1.6492124e-11
1.4815994e-08
1.6473025e-11
1.4803777e-08
1.6455215e-11
1.4791572e-08
1.6438841e-11
1.4779376e-08
1.6424305e-11
1.476719e-08
1.6411744e-11
1.4755011e-08
1.6401519e-11
1.4742837e-08
1.6394051e-11
1.4730667e-08
1.6389489e-11
1.4718498e-08
1.6387502e-11
1.4706328e-08
1.6388862e-11
1.4694155e-08
1.6392953e-11
1.4681976e-08
1.6400325e-11
1.466979e-08
1.6410678e-11
1.4657593e-08
1.6424181e-11
1.4645385e-08
1.6440446e-11
1.4633163e-08
1.6459768e-11
1.4620924e-08
1.6481709e-11
1.4608668e-08
1.650629e-11
1.4596392e-08
1.6533153e-11
1.4584094e-08
1.6562498e-11
1.4571774e-08
1.6593564e-11
1.4559429e-08
1.6626797e-11
1.4547059e-08
1.6661629e-11
1.4534662e-08
1.6697646e-11
1.4522238e-08
1.6734906e-11
1.4509785e-08
1.6773369e-11
1.4497304e-08
1.6812485e-11
1.4484794e-08
1.6852147e-11
1.4472254e-08
1.6892074e-11
1.4459685e-08
1.6932298e-11
1.4447086e-08
1.697231e-11
1.4434458e-08
1.7012084e-11
1.4421802e-08
1.7051323e-11
1.4409117e-08
1.7090111e-11
1.4396404e-08
1.7127917e-11
1.4383664e-08
1.7164673e-11
1.4370898e-08
1.7200429e-11
1.4358106e-08
1.7234974e-11
1.434529e-08
1.7268207e-11
1.433245e-08
1.7299794e-11
1.4319588e-08
1.7330101e-11
1.4306705e-08
1.7358663e-11
1.4293802e-08
1.7385982e-11
1.428088e-08
1.7411163e-11
1.426794e-08
1.7435121e-11
1.4254984e-08
1.7457309e-11
1.4242013e-08
1.7477911e-11
1.4229028e-08
1.7496693e-11
1.4216029e-08
1.7513995e-11
1.4203019e-08
1.7529921e-11
1.4189998e-08
1.7544344e-11
1.4176968e-08
1.7557473e-11
1.4163928e-08
1.7569185e-11
1.4150881e-08
1.7579963e-11
1.4137825e-08
1.7589922e-11
1.4124764e-08
1.7598768e-11
1.4111696e-08
1.7606881e-11
1.4098622e-08
1.7614226e-11
1.4085543e-08
1.7621387e-11
1.4072459e-08
1.7628191e-11
1.405937e-08
1.7634687e-11
1.4046275e-08
1.7641229e-11
1.4033176e-08
1.7648061e-11
1.4020071e-08
1.7655087e-11
1.400696e-08
1.7662922e-11
1.3993842e-08
1.7671266e-11
1.3980718e-08
1.7680357e-11
1.3967586e-08
1.7690572e-11
1.3954446e-08
1.7701619e-11
1.3941296e-08
1.77142e-11
1.3928137e-08
1.7728073e-11
1.3914965e-08
1.7743565e-11
1.3901781e-08
1.7760718e-11
1.3888582e-08
1.7779571e-11
1.3875368e-08
1.7800258e-11
1.3862138e-08
1.7823091e-11
1.3848888e-08
1.7847781e-11
1.383562e-08
1.7874553e-11
1.3822329e-08
1.7903455e-11
1.3809016e-08
1.7934538e-11
1.3795678e-08
1.7968055e-11
1.3782313e-08
1.8003614e-11
1.376892e-08
1.804163e-11
1.3755498e-08
1.8081751e-11
1.3742044e-08
1.8124311e-11
1.3728557e-08
1.8168999e-11
1.3715035e-08
1.8215966e-11
1.3701477e-08
1.8264884e-11
1.3687881e-08
1.8316162e-11
1.3674246e-08
1.8369408e-11
1.366057e-08
1.8424491e-11
1.3646852e-08
1.848148e-11
1.3633091e-08
1.8540349e-11
1.3619285e-08
1.8600753e-11
1.3605433e-08
1.8662653e-11
1.3591534e-08
1.8726026e-11
1.3577587e-08
1.8790611e-11
1.3563591e-08
1.8856498e-11
1.3549546e-08
1.8923536e-11
1.3535451e-08
1.8991431e-11
1.3521305e-08
1.9060236e-11
1.3507107e-08
1.9129309e-11
1.3492858e-08
1.9199068e-11
1.3478557e-08
1.926927e-11
1.3464203e-08
1.9339723e-11
1.3449797e-08
1.9410309e-11
1.3435339e-08
1.9480894e-11
1.3420829e-08
1.9551228e-11
1.3406267e-08
1.9621283e-11
1.3391652e-08
1.9690901e-11
1.3376987e-08
1.9759976e-11
1.3362271e-08
1.9828869e-11
1.3347504e-08
1.9896837e-11
1.3332687e-08
1.9963741e-11
1.3317821e-08
2.0029989e-11
1.3302906e-08
2.0095422e-11
1.3287944e-08
2.0159721e-11
1.3272934e-08
2.0222957e-11
1.3257878e-08
2.0285224e-11
1.3242776e-08
2.0346219e-11
1.322763e-08
2.0405976e-11
1.321244e-08
2.0464917e-11
1.3197208e-08
2.0522298e-11
1.3181933e-08
2.0578416e-11
1.3166617e-08
2.0633203e-11
1.3151262e-08
2.0686951e-11
1.3135867e-08
2.0739504e-11
1.3120433e-08
2.0790869e-11
1.3104962e-08
2.0840937e-11
1.3089455e-08
2.0890136e-11
1.3073911e-08
2.0938109e-11
1.3058332e-08
2.0985134e-11
1.3042719e-08
2.1031305e-11
1.3027072e-08
2.1076479e-11
1.3011392e-08
2.112071e-11
1.299568e-08
2.116388e-11
1.2979936e-08
2.1206449e-11
1.296416e-08
2.1248536e-11
1.2948353e-08
2.1290072e-11
1.2932516e-08
2.133103e-11
1.2916648e-08
2.1371712e-11
1.290075e-08
2.141188e-11
1.2884823e-08
2.1451881e-11
1.2868865e-08
2.1491585e-11
1.2852878e-08
2.153151e-11
1.2836862e-08
2.1571126e-11
1.2820815e-08
2.1610949e-11
1.2804739e-08
2.1651147e-11
1.2788633e-08
2.1691495e-11
1.2772496e-08
2.1732287e-11
1.2756329e-08
2.1773565e-11
1.2740131e-08
2.1815103e-11
1.2723901e-08
2.1857449e-11
1.2707639e-08
2.190061e-11
1.2691345e-08
2.194427e-11
1.2675018e-08
2.198896e-11
1.2658657e-08
2.2034621e-11
1.2642261e-08
2.2081332e-11
1.2625829e-08
2.2128865e-11
1.2609362e-08
2.2177891e-11
1.2592858e-08
2.2228016e-11
1.2576316e-08
2.2279124e-11
1.2559735e-08
2.2331539e-11
1.2543114e-08
2.2385307e-11
1.2526452e-08
2.2440548e-11
1.2509749e-08
2.2497044e-11
1.2493003e-08
2.2554878e-11
1.2476213e-08
2.2614076e-11
1.2459378e-08
2.2674852e-11
1.2442498e-08
2.2736961e-11
1.242557e-08
2.2800401e-11
1.2408595e-08
2.2865397e-11
1.239157e-08
2.2931789e-11
1.2374496e-08
2.299956e-11
1.235737e-08
2.3068418e-11
1.2340193e-08
2.3138827e-11
1.2322962e-08
2.3210537e-11
1.2305678e-08
2.3283549e-11
1.2288339e-08
2.3357848e-11
1.2270944e-08
2.3433366e-11
1.2253493e-08
2.3510059e-11
1.2235984e-08
2.3587864e-11
1.2218416e-08
2.3666541e-11
1.220079e-08
2.3746448e-11
1.2183104e-08
2.3827188e-11
1.2165358e-08
2.3908811e-11
1.2147551e-08
2.3991355e-11
1.2129682e-08
2.4074582e-11
1.2111751e-08
2.4158662e-11
1.2093758e-08
2.4243454e-11
1.2075702e-08
2.4328745e-11
1.2057582e-08
2.4414564e-11
1.2039398e-08
2.4500699e-11
1.202115e-08
2.458751e-11
1.2002838e-08
2.4674671e-11
1.1984461e-08
2.4762145e-11
1.196602e-08
2.4849562e-11
1.1947513e-08
2.4937439e-11
1.1928941e-08
2.5025366e-11
1.1910305e-08
2.5113376e-11
1.1891603e-08
2.5201446e-11
1.1872836e-08
2.5289358e-11
1.1854004e-08
2.5377289e-11
1.1835107e-08
2.546516e-11
1.1816145e-08
2.5552808e-11
1.1797118e-08
2.5640489e-11
1.1778026e-08
2.5727628e-11
1.175887e-08
2.5814843e-11
1.1739649e-08
2.5901684e-11
1.1720364e-08
2.5988441e-11
1.1701015e-08
2.6074595e-11
1.1681602e-08
2.6160628e-11
1.1662126e-08
2.6246525e-11
1.1642586e-08
2.6332189e-11
1.1622983e-08
2.6417257e-11
1.1603317e-08
2.6502264e-11
1.1583587e-08
2.6587161e-11
1.1563795e-08
2.6671816e-11
1.154394e-08
2.6756246e-11
1.1524022e-08
2.6840321e-11
1.1504042e-08
2.6924469e-11
1.1483999e-08
2.7008531e-11
1.1463894e-08
2.7092809e-11
1.1443725e-08
2.7176967e-11
1.1423495e-08
2.7261047e-11
1.1403201e-08
2.7345346e-11
1.1382845e-08
2.7429666e-11
1.1362426e-08
2.7514221e-11
1.1341944e-08
2.7599076e-11
1.1321398e-08
2.7684443e-11
1.1300788e-08
2.7770112e-11
1.1280115e-08
2.7855976e-11
1.1259377e-08
2.7942349e-11
1.1238574e-08
2.8029296e-11
1.1217707e-08
2.8116823e-11
1.1196773e-08
2.8204578e-11
1.1175774e-08
2.8293357e-11
1.1154708e-08
2.8382559e-11
1.1133576e-08
2.8472592e-11
1.1112375e-08
2.8563107e-11
1.1091107e-08
2.8654607e-11
1.106977e-08
2.8746827e-11
1.1048364e-08
2.8839771e-11
1.1026888e-08
2.8933569e-11
1.1005342e-08
2.9028437e-11
1.0983724e-08
2.9123829e-11
1.0962035e-08
2.9220143e-11
1.0940274e-08
2.9317293e-11
1.091844e-08
2.9415287e-11
1.0896532e-08
2.9514103e-11
1.087455e-08
2.961378e-11
1.0852493e-08
2.9714333e-11
1.0830361e-08
2.9815873e-11
1.0808152e-08
2.991798e-11
1.0785867e-08
3.0021225e-11
1.0763505e-08
3.0125196e-11
1.0741064e-08
3.023019e-11
1.0718545e-08
3.0336131e-11
1.0695946e-08
3.0443112e-11
1.0673267e-08
3.0550795e-11
1.0650507e-08
3.0659661e-11
1.0627665e-08
3.0769543e-11
1.0604741e-08
3.088058e-11
1.0581734e-08
3.0992644e-11
1.0558642e-08
3.1105774e-11
1.0535465e-08
3.1220365e-11
1.0512202e-08