/*--------------------------------*- C++ -*----------------------------------*\
| =========                 |                                                 |
| \\      /  F ield         | OpenFOAM: The Open Source CFD Toolbox           |
|  \\    /   O peration     | Version:  2106                                  |
|   \\  /    A nd           | Website:  www.openfoam.com                      |
|    \\/     M anipulation  |                                                 |
\*---------------------------------------------------------------------------*/
FoamFile
{
    version     2.0;
    format      ascii;
    arch        "LSB;label=32;scalar=64";
    class       volVectorField;
    location    "30";
    object      U;
}
// * * * * * * * * * * * * * * * * * * * * * * * * * * * * * * * * * * * * * //

dimensions      [0 1 -1 0 0 0 0];

internalField   nonuniform List<vector> 
60000
(
(-4.0120721e-07 4.0139931e-07 0)
(-1.8724949e-06 4.7681904e-07 0)
(-2.9931873e-06 3.6153814e-07 0)
(-3.1815181e-06 1.7250659e-07 0)
(-2.0742513e-06 -3.6945002e-08 0)
(4.3228432e-07 -2.400895e-07 0)
(4.3369519e-06 -4.3091306e-07 0)
(9.5839241e-06 -6.0528671e-07 0)
(1.6098529e-05 -7.6246544e-07 0)
(2.3796751e-05 -9.0397932e-07 0)
(3.2593848e-05 -1.0317075e-06 0)
(4.2409248e-05 -1.1474415e-06 0)
(5.3168727e-05 -1.252862e-06 0)
(6.4805378e-05 -1.3495271e-06 0)
(7.7259816e-05 -1.4388097e-06 0)
(9.0479891e-05 -1.5219349e-06 0)
(0.00010442029 -1.5999743e-06 0)
(0.00011904194 -1.6738876e-06 0)
(0.00013431082 -1.7442982e-06 0)
(0.00015019649 -1.8116136e-06 0)
(0.0001666712 -1.8762062e-06 0)
(0.0001837091 -1.9383026e-06 0)
(0.00020128507 -1.9978807e-06 0)
(0.00021937357 -2.0548701e-06 0)
(0.00023794808 -2.1091715e-06 0)
(0.00025698011 -2.1604149e-06 0)
(0.00027643839 -2.2083026e-06 0)
(0.00029628761 -2.2520918e-06 0)
(0.00031648719 -2.2909814e-06 0)
(0.00033699125 -2.3242808e-06 0)
(0.00035774877 -2.3513042e-06 0)
(0.00037870361 -2.3713835e-06 0)
(0.00039979465 -2.3838552e-06 0)
(0.00042095607 -2.3881187e-06 0)
(0.00044211775 -2.3836457e-06 0)
(0.00046320588 -2.3699992e-06 0)
(0.00048414376 -2.3468369e-06 0)
(0.0005048527 -2.3139496e-06 0)
(0.00052525287 -2.2712943e-06 0)
(0.00054526445 -2.2189088e-06 0)
(0.00056480862 -2.1570182e-06 0)
(0.00058380864 -2.0859641e-06 0)
(0.00060219093 -2.0062371e-06 0)
(0.00061988601 -1.9184445e-06 0)
(0.00063682949 -1.8233278e-06 0)
(0.00065296281 -1.7216827e-06 0)
(0.00066823407 -1.6144226e-06 0)
(0.00068259848 -1.5025246e-06 0)
(0.00069601887 -1.3869735e-06 0)
(0.00070846603 -1.2687981e-06 0)
(0.00071991875 -1.1490535e-06 0)
(0.00073036393 -1.0287099e-06 0)
(0.00073979641 -9.0878424e-07 0)
(0.00074821875 -7.9019822e-07 0)
(0.00075564085 -6.7379821e-07 0)
(0.0007620795 -5.6042338e-07 0)
(0.0007675579 -4.5076192e-07 0)
(0.00077210501 -3.4546029e-07 0)
(0.00077575492 -2.4506304e-07 0)
(0.00077854621 -1.5001495e-07 0)
(0.00078052122 -6.0626738e-08 0)
(0.00078172564 2.2922018e-08 0)
(0.00078220793 1.0018318e-07 0)
(0.00078201606 1.7001408e-07 0)
(0.00078120287 2.3385793e-07 0)
(0.00077981888 2.9205337e-07 0)
(0.00077791649 3.4386728e-07 0)
(0.00077554636 3.8943705e-07 0)
(0.00077275914 4.2903854e-07 0)
(0.00076960421 4.6289093e-07 0)
(0.00076612935 4.9124475e-07 0)
(0.00076238055 5.143589e-07 0)
(0.00075840174 5.3256911e-07 0)
(0.00075423461 5.4617236e-07 0)
(0.00074991847 5.5548349e-07 0)
(0.00074549022 5.608174e-07 0)
(0.0007409843 5.624964e-07 0)
(0.00073643263 5.608177e-07 0)
(0.00073186454 5.5611839e-07 0)
(0.00072730673 5.4874803e-07 0)
(0.00072278333 5.3897702e-07 0)
(0.00071831603 5.2711992e-07 0)
(0.00071392418 5.1341147e-07 0)
(0.00070962485 4.9813459e-07 0)
(0.00070543295 4.8153926e-07 0)
(0.00070136117 4.6386263e-07 0)
(0.0006974202 4.4533477e-07 0)
(0.00069361889 4.2614864e-07 0)
(0.00068996435 4.0650311e-07 0)
(0.00068646204 3.8654871e-07 0)
(0.00068311589 3.6644475e-07 0)
(0.0006799285 3.4634453e-07 0)
(0.00067690111 3.2638932e-07 0)
(0.00067403372 3.0670641e-07 0)
(0.00067132533 2.8739119e-07 0)
(0.00066877397 2.6852197e-07 0)
(0.00066637687 2.5018772e-07 0)
(0.00066413054 2.3244204e-07 0)
(0.00066203079 2.1534572e-07 0)
(0.00066007286 1.9897677e-07 0)
(0.00065825152 1.8335645e-07 0)
(0.00065656111 1.6850712e-07 0)
(0.00065499568 1.5446886e-07 0)
(0.00065354901 1.4124755e-07 0)
(0.00065221473 1.28846e-07 0)
(0.00065098635 1.1726878e-07 0)
(0.00064985735 1.0650163e-07 0)
(0.00064882118 9.6537835e-08 0)
(0.00064787127 8.7380737e-08 0)
(0.00064700116 7.9009797e-08 0)
(0.00064620445 7.1396417e-08 0)
(0.00064547492 6.4517769e-08 0)
(0.00064480651 5.833595e-08 0)
(0.00064419339 5.2841249e-08 0)
(0.00064362994 4.7975558e-08 0)
(0.00064311078 4.3726314e-08 0)
(0.00064263078 4.0062735e-08 0)
(0.00064218505 3.6937155e-08 0)
(0.00064176901 3.4322658e-08 0)
(0.00064137833 3.218155e-08 0)
(0.00064100896 3.0468392e-08 0)
(0.00064065714 2.9167333e-08 0)
(0.0006403194 2.8240458e-08 0)
(0.00063999254 2.7634472e-08 0)
(0.00063967363 2.7330495e-08 0)
(0.00063936004 2.7302361e-08 0)
(0.00063904935 2.7505786e-08 0)
(0.00063873943 2.7936605e-08 0)
(0.00063842837 2.8539405e-08 0)
(0.00063811449 2.9302819e-08 0)
(0.00063779632 3.019219e-08 0)
(0.00063747265 3.1200973e-08 0)
(0.00063714241 3.2292443e-08 0)
(0.00063680472 3.3461312e-08 0)
(0.0006364589 3.4668773e-08 0)
(0.00063610439 3.5906261e-08 0)
(0.00063574079 3.7169645e-08 0)
(0.00063536784 3.8427744e-08 0)
(0.0006349854 3.9682143e-08 0)
(0.00063459343 4.0925542e-08 0)
(0.00063419199 4.2135086e-08 0)
(0.00063378119 4.3303015e-08 0)
(0.00063336129 4.442276e-08 0)
(0.00063293256 4.5501992e-08 0)
(0.00063249534 4.6519253e-08 0)
(0.00063205001 4.7482191e-08 0)
(0.00063159699 4.8385295e-08 0)
(0.00063113672 4.9226395e-08 0)
(0.00063066966 4.9992698e-08 0)
(0.00063019631 5.0708124e-08 0)
(0.00062971719 5.1357987e-08 0)
(0.00062923277 5.1929883e-08 0)
(0.00062874352 5.2447921e-08 0)
(0.00062824993 5.2905383e-08 0)
(0.0006277525 5.3309151e-08 0)
(0.00062725168 5.3642726e-08 0)
(0.00062674791 5.394059e-08 0)
(0.0006262416 5.4177095e-08 0)
(0.00062573314 5.437186e-08 0)
(0.00062522292 5.452326e-08 0)
(0.00062471127 5.4631614e-08 0)
(0.00062419852 5.4699654e-08 0)
(0.00062368499 5.4739287e-08 0)
(0.00062317091 5.4758809e-08 0)
(0.00062265653 5.4745905e-08 0)
(0.00062214204 5.4711976e-08 0)
(0.00062162764 5.4664912e-08 0)
(0.00062111346 5.4593317e-08 0)
(0.00062059967 5.4517124e-08 0)
(0.00062008636 5.4426204e-08 0)
(0.00061957361 5.4333139e-08 0)
(0.00061906149 5.4226886e-08 0)
(0.00061855001 5.4121361e-08 0)
(0.00061803921 5.4028613e-08 0)
(0.00061752908 5.3926473e-08 0)
(0.00061701963 5.3836327e-08 0)
(0.00061651081 5.3743305e-08 0)
(0.00061600256 5.3655709e-08 0)
(0.00061549484 5.359762e-08 0)
(0.00061498759 5.3532387e-08 0)
(0.00061448071 5.3477852e-08 0)
(0.00061397414 5.344163e-08 0)
(0.00061346779 5.34117e-08 0)
(0.00061296156 5.3397197e-08 0)
(0.00061245536 5.3391304e-08 0)
(0.00061194907 5.3410845e-08 0)
(0.0006114426 5.3428621e-08 0)
(0.00061093585 5.347007e-08 0)
(0.00061042873 5.3516291e-08 0)
(0.00060992113 5.3575508e-08 0)
(0.00060941297 5.3651541e-08 0)
(0.00060890415 5.3727079e-08 0)
(0.00060839459 5.3824428e-08 0)
(0.0006078842 5.3925959e-08 0)
(0.00060737292 5.403094e-08 0)
(0.00060686066 5.4150526e-08 0)
(0.00060634737 5.4280655e-08 0)
(0.00060583299 5.4405722e-08 0)
(0.00060531747 5.4541014e-08 0)
(0.00060480077 5.4694925e-08 0)
(0.00060428286 5.4837457e-08 0)
(0.00060376371 5.4986607e-08 0)
(0.00060324331 5.5139187e-08 0)
(0.00060272163 5.5283369e-08 0)
(0.00060219866 5.5433384e-08 0)
(0.00060167442 5.5586306e-08 0)
(0.00060114892 5.5734154e-08 0)
(0.00060062216 5.5877079e-08 0)
(0.00060009416 5.6026931e-08 0)
(0.00059956495 5.6156217e-08 0)
(0.00059903455 5.6292307e-08 0)
(0.000598503 5.6422604e-08 0)
(0.00059797035 5.6561042e-08 0)
(0.00059743662 5.6668984e-08 0)
(0.00059690186 5.6776727e-08 0)
(0.00059636614 5.6892089e-08 0)
(0.00059582948 5.6998196e-08 0)
(0.00059529194 5.7089341e-08 0)
(0.00059475359 5.7182701e-08 0)
(0.00059421448 5.7260034e-08 0)
(0.00059367464 5.7340574e-08 0)
(0.00059313414 5.7401988e-08 0)
(0.00059259305 5.7465241e-08 0)
(0.00059205138 5.7522695e-08 0)
(0.00059150921 5.7573057e-08 0)
(0.0005909666 5.7614734e-08 0)
(0.00059042355 5.7652892e-08 0)
(0.00058988013 5.7689213e-08 0)
(0.00058933637 5.7718966e-08 0)
(0.00058879229 5.7748383e-08 0)
(0.00058824797 5.7770399e-08 0)
(0.00058770341 5.7782287e-08 0)
(0.00058715861 5.7794807e-08 0)
(0.00058661361 5.781112e-08 0)
(0.00058606842 5.7818479e-08 0)
(0.00058552304 5.7833566e-08 0)
(0.00058497747 5.7846844e-08 0)
(0.00058443172 5.7849733e-08 0)
(0.00058388576 5.787129e-08 0)
(0.0005833396 5.7894276e-08 0)
(0.00058279321 5.7911964e-08 0)
(0.00058224658 5.7927775e-08 0)
(0.00058169965 5.7954382e-08 0)
(0.00058115239 5.7987287e-08 0)
(0.0005806048 5.8021146e-08 0)
(0.00058005683 5.8055548e-08 0)
(0.0005795084 5.8099958e-08 0)
(0.00057895948 5.8147899e-08 0)
(0.00057841003 5.8206964e-08 0)
(0.00057785996 5.8275921e-08 0)
(0.00057730922 5.8345768e-08 0)
(0.00057675775 5.8421424e-08 0)
(0.00057620548 5.8503582e-08 0)
(0.00057565235 5.8602147e-08 0)
(0.00057509828 5.8706546e-08 0)
(0.00057454322 5.8817027e-08 0)
(0.00057398709 5.8936858e-08 0)
(0.0005734298 5.9065861e-08 0)
(0.00057287131 5.9210661e-08 0)
(0.00057231151 5.9350112e-08 0)
(0.00057175035 5.9496528e-08 0)
(0.00057118777 5.9666764e-08 0)
(0.00057062367 5.9830603e-08 0)
(0.00057005801 6.0011992e-08 0)
(0.00056949071 6.0189179e-08 0)
(0.00056892172 6.0377944e-08 0)
(0.00056835098 6.0570305e-08 0)
(0.00056777843 6.0777843e-08 0)
(0.00056720403 6.0984653e-08 0)
(0.00056662771 6.1200115e-08 0)
(0.00056604944 6.1418115e-08 0)
(0.00056546918 6.1637575e-08 0)
(0.00056488686 6.1871697e-08 0)
(0.00056430247 6.2097723e-08 0)
(0.00056371599 6.2324199e-08 0)
(0.00056312737 6.2557646e-08 0)
(0.00056253661 6.2797252e-08 0)
(0.00056194367 6.3032069e-08 0)
(0.00056134857 6.3261109e-08 0)
(0.00056075127 6.3495526e-08 0)
(0.00056015178 6.3739638e-08 0)
(0.00055955012 6.39669e-08 0)
(0.00055894628 6.4198631e-08 0)
(0.00055834027 6.4425246e-08 0)
(0.00055773209 6.4659233e-08 0)
(0.00055712175 6.4883255e-08 0)
(0.0005565093 6.5109075e-08 0)
(0.00055589476 6.5322793e-08 0)
(0.00055527813 6.5532581e-08 0)
(0.00055465944 6.5746008e-08 0)
(0.00055403873 6.5952529e-08 0)
(0.00055341602 6.6164403e-08 0)
(0.00055279136 6.6356046e-08 0)
(0.00055216478 6.6550213e-08 0)
(0.00055153632 6.674102e-08 0)
(0.00055090601 6.6922046e-08 0)
(0.00055027388 6.7105103e-08 0)
(0.00054963999 6.7276961e-08 0)
(0.00054900438 6.7445052e-08 0)
(0.00054836705 6.7604606e-08 0)
(0.00054772808 6.7766117e-08 0)
(0.00054708751 6.7923986e-08 0)
(0.00054644536 6.8085258e-08 0)
(0.00054580166 6.8228679e-08 0)
(0.00054515646 6.8378124e-08 0)
(0.00054450979 6.8517198e-08 0)
(0.00054386168 6.8654435e-08 0)
(0.00054321216 6.8791567e-08 0)
(0.00054256128 6.891856e-08 0)
(0.00054190904 6.9035186e-08 0)
(0.00054125548 6.9163812e-08 0)
(0.00054060061 6.9283994e-08 0)
(0.00053994447 6.9409123e-08 0)
(0.00053928705 6.952802e-08 0)
(0.00053862838 6.965153e-08 0)
(0.00053796849 6.9766156e-08 0)
(0.00053730737 6.9882863e-08 0)
(0.00053664504 6.9997122e-08 0)
(0.0005359815 7.012529e-08 0)
(0.00053531676 7.0249953e-08 0)
(0.0005346508 7.0367917e-08 0)
(0.00053398363 7.0491609e-08 0)
(0.00053331525 7.0608222e-08 0)
(0.00053264563 7.07314e-08 0)
(0.00053197478 7.086656e-08 0)
(0.00053130268 7.09939e-08 0)
(0.00053062929 7.1122209e-08 0)
(0.00052995461 7.1257681e-08 0)
(0.00052927863 7.1402274e-08 0)
(0.0005286013 7.1533915e-08 0)
(0.00052792259 7.1684459e-08 0)
(0.00052724248 7.1835564e-08 0)
(0.00052656093 7.1993903e-08 0)
(0.00052587792 7.2154804e-08 0)
(0.00052519341 7.2313367e-08 0)
(0.00052450737 7.2483967e-08 0)
(0.00052381974 7.2663043e-08 0)
(0.00052313049 7.2838777e-08 0)
(0.00052243958 7.3027858e-08 0)
(0.00052174697 7.321259e-08 0)
(0.00052105263 7.3411181e-08 0)
(0.00052035649 7.3608424e-08 0)
(0.0005196585 7.3816077e-08 0)
(0.00051895864 7.4027639e-08 0)
(0.00051825685 7.4239209e-08 0)
(0.00051755308 7.4463806e-08 0)
(0.00051684731 7.4687015e-08 0)
(0.00051613948 7.4927478e-08 0)
(0.00051542954 7.5165152e-08 0)
(0.00051471745 7.540483e-08 0)
(0.00051400318 7.5649592e-08 0)
(0.00051328667 7.5899786e-08 0)
(0.00051256789 7.6158734e-08 0)
(0.00051184679 7.6414503e-08 0)
(0.00051112336 7.6684066e-08 0)
(0.00051039755 7.6947247e-08 0)
(0.0005096693 7.7221204e-08 0)
(0.00050893859 7.7498017e-08 0)
(0.0005082054 7.778323e-08 0)
(0.00050746967 7.8061769e-08 0)
(0.00050673139 7.8353017e-08 0)
(0.00050599054 7.8635358e-08 0)
(0.0005052471 7.8931853e-08 0)
(0.00050450103 7.9224681e-08 0)
(0.00050375232 7.9521027e-08 0)
(0.00050300097 7.9821674e-08 0)
(0.00050224693 8.011597e-08 0)
(0.0005014902 8.041314e-08 0)
(0.00050073075 8.0724932e-08 0)
(0.00049996858 8.1025949e-08 0)
(0.00049920368 8.1328127e-08 0)
(0.00049843603 8.1625326e-08 0)
(0.00049766566 8.1936803e-08 0)
(0.00049689255 8.2240336e-08 0)
(0.00049611669 8.254557e-08 0)
(0.00049533808 8.2841362e-08 0)
(0.00049455673 8.3143817e-08 0)
(0.00049377264 8.3442429e-08 0)
(0.00049298581 8.3744292e-08 0)
(0.00049219624 8.4035183e-08 0)
(0.00049140396 8.4334139e-08 0)
(0.00049060894 8.4622943e-08 0)
(0.00048981122 8.4921307e-08 0)
(0.0004890108 8.521222e-08 0)
(0.0004882077 8.5508703e-08 0)
(0.00048740192 8.5797684e-08 0)
(0.00048659345 8.6087982e-08 0)
(0.00048578232 8.6374218e-08 0)
(0.00048496856 8.6653627e-08 0)
(0.00048415216 8.6927192e-08 0)
(0.00048333313 8.7204047e-08 0)
(0.00048251148 8.7481807e-08 0)
(0.00048168722 8.7754547e-08 0)
(0.00048086034 8.8027297e-08 0)
(0.00048003087 8.8303802e-08 0)
(0.00047919881 8.8562006e-08 0)
(0.00047836415 8.8834955e-08 0)
(0.00047752691 8.9096799e-08 0)
(0.00047668708 8.9372374e-08 0)
(0.00047584467 8.9633266e-08 0)
(0.00047499968 8.989765e-08 0)
(0.00047415211 9.0163271e-08 0)
(0.00047330194 9.042241e-08 0)
(0.00047244917 9.0700257e-08 0)
(0.0004715938 9.0962984e-08 0)
(0.00047073582 9.1223711e-08 0)
(0.00046987521 9.149577e-08 0)
(0.00046901195 9.1771904e-08 0)
(0.00046814603 9.2031714e-08 0)
(0.00046727745 9.2305077e-08 0)
(0.00046640618 9.2581577e-08 0)
(0.00046553219 9.285631e-08 0)
(0.00046465548 9.3136528e-08 0)
(0.00046377603 9.3418455e-08 0)
(0.00046289381 9.369888e-08 0)
(0.0004620088 9.3986317e-08 0)
(0.00046112097 9.42767e-08 0)
(0.00046023029 9.4573408e-08 0)
(0.00045933675 9.4857333e-08 0)
(0.0004584403 9.5150213e-08 0)
(0.00045754094 9.5454035e-08 0)
(0.00045663865 9.5759754e-08 0)
(0.00045573339 9.6073072e-08 0)
(0.00045482512 9.6378138e-08 0)
(0.00045391384 9.6690379e-08 0)
(0.0004529995 9.699991e-08 0)
(0.00045208208 9.7323759e-08 0)
(0.00045116156 9.7636556e-08 0)
(0.0004502379 9.7959562e-08 0)
(0.00044931109 9.8287068e-08 0)
(0.00044838109 9.8616096e-08 0)
(0.00044744788 9.8949477e-08 0)
(0.00044651142 9.928684e-08 0)
(0.00044557171 9.9625143e-08 0)
(0.0004446287 9.9974633e-08 0)
(0.00044368235 1.0031437e-07 0)
(0.00044273265 1.0066147e-07 0)
(0.00044177955 1.0100885e-07 0)
(0.00044082301 1.0137213e-07 0)
(0.00043986302 1.0172369e-07 0)
(0.00043889953 1.0209149e-07 0)
(0.00043793249 1.0246136e-07 0)
(0.00043696185 1.0283558e-07 0)
(0.00043598759 1.0320638e-07 0)
(0.00043500964 1.0359297e-07 0)
(0.00043402795 1.0398653e-07 0)
(0.00043304248 1.0438746e-07 0)
(0.00043205313 1.0479135e-07 0)
(0.00043105986 1.0520699e-07 0)
(0.0004300626 1.0561731e-07 0)
(0.00042906127 1.0606037e-07 0)
(0.00042805578 1.0649661e-07 0)
(0.00042704605 1.0693989e-07 0)
(0.00042603199 1.0739604e-07 0)
(0.0004250135 1.0787e-07 0)
(0.00042399047 1.0835716e-07 0)
(0.0004229628 1.0884802e-07 0)
(0.00042193036 1.0935774e-07 0)
(0.00042089304 1.0988227e-07 0)
(0.00041985068 1.1041926e-07 0)
(0.00041880315 1.1097434e-07 0)
(0.00041775033 1.115497e-07 0)
(0.00041669208 1.1213687e-07 0)
(0.00041562821 1.1273317e-07 0)
(0.00041455857 1.1335885e-07 0)
(0.00041348298 1.1400206e-07 0)
(0.00041240126 1.1465889e-07 0)
(0.00041131325 1.1534015e-07 0)
(0.00041021877 1.1604324e-07 0)
(0.00040911763 1.1677161e-07 0)
(0.00040800963 1.1751934e-07 0)
(0.00040689456 1.1827706e-07 0)
(0.00040577228 1.190766e-07 0)
(0.00040464255 1.1988494e-07 0)
(0.00040350518 1.2070976e-07 0)
(0.00040235997 1.2156536e-07 0)
(0.00040120673 1.2244736e-07 0)
(0.00040004526 1.2334314e-07 0)
(0.00039887538 1.2427106e-07 0)
(0.00039769692 1.2520686e-07 0)
(0.00039650971 1.2616743e-07 0)
(0.00039531357 1.271492e-07 0)
(0.00039410835 1.2814493e-07 0)
(0.00039289389 1.2915511e-07 0)
(0.0003916701 1.3018475e-07 0)
(0.00039043684 1.3121328e-07 0)
(0.00038919401 1.3225778e-07 0)
(0.00038794156 1.333189e-07 0)
(0.00038667944 1.3438539e-07 0)
(0.00038540759 1.3545393e-07 0)
(0.00038412602 1.3651959e-07 0)
(0.00038283474 1.3758183e-07 0)
(0.00038153384 1.3862823e-07 0)
(0.00038022337 1.3967282e-07 0)
(0.00037890346 1.407002e-07 0)
(0.00037757424 1.4171323e-07 0)
(0.0003762359 1.4270156e-07 0)
(0.00037488868 1.4365186e-07 0)
(0.00037353282 1.445823e-07 0)
(0.00037216861 1.4547812e-07 0)
(0.00037079642 1.4633515e-07 0)
(0.0003694166 1.471518e-07 0)
(0.00036802954 1.47912e-07 0)
(0.00036663571 1.4862517e-07 0)
(0.00036523558 1.4927251e-07 0)
(0.0003638297 1.4985177e-07 0)
(0.00036241861 1.5037055e-07 0)
(0.00036100289 1.5081269e-07 0)
(0.00035958316 1.5119078e-07 0)
(0.00035816003 1.5149654e-07 0)
(0.00035673417 1.5171151e-07 0)
(0.00035530624 1.5185184e-07 0)
(0.00035387692 1.5191097e-07 0)
(0.00035244688 1.5187933e-07 0)
(0.00035101675 1.5177573e-07 0)
(0.00034958721 1.5159787e-07 0)
(0.00034815885 1.5134014e-07 0)
(0.00034673225 1.5100695e-07 0)
(0.00034530794 1.5060293e-07 0)
(0.00034388638 1.5014437e-07 0)
(0.00034246797 1.4964348e-07 0)
(0.00034105301 1.4909261e-07 0)
(0.00033964168 1.4852395e-07 0)
(0.00033823405 1.4793716e-07 0)
(0.00033683007 1.473378e-07 0)
(0.00033542947 1.4676877e-07 0)
(0.00033403185 1.4624349e-07 0)
(0.00033263664 1.4577748e-07 0)
(0.00033124301 1.4539987e-07 0)
(0.00032984989 1.4513427e-07 0)
(0.00032845597 1.4502485e-07 0)
(0.00032705964 1.4508448e-07 0)
(0.00032565901 1.4535305e-07 0)
(0.00032425184 1.4587762e-07 0)
(0.00032283559 1.4669107e-07 0)
(0.00032140731 1.478279e-07 0)
(0.00031996365 1.4934179e-07 0)
(0.00031850091 1.5128274e-07 0)
(0.00031701491 1.5369596e-07 0)
(0.00031550106 1.5662274e-07 0)
(0.0003139543 1.6012171e-07 0)
(0.00031236912 1.6426534e-07 0)
(0.00031073946 1.6907636e-07 0)
(0.00030905883 1.7462483e-07 0)
(0.00030732022 1.8097403e-07 0)
(0.0003055161 1.8817071e-07 0)
(0.00030363843 1.9628816e-07 0)
(0.00030167869 2.0536689e-07 0)
(0.00029962784 2.1548568e-07 0)
(0.00029747635 2.266665e-07 0)
(0.00029521424 2.3897434e-07 0)
(0.00029283105 2.5247862e-07 0)
(0.00029031591 2.6721589e-07 0)
(0.00028765752 2.832255e-07 0)
(0.00028484428 3.0055098e-07 0)
(0.00028186422 3.1924082e-07 0)
(0.00027870509 3.3932212e-07 0)
(0.00027535448 3.6081045e-07 0)
(0.0002717998 3.837291e-07 0)
(0.00026802838 4.0808313e-07 0)
(0.00026402754 4.338873e-07 0)
(0.00025978474 4.6113392e-07 0)
(0.00025528762 4.8980326e-07 0)
(0.0002505241 5.1986998e-07 0)
(0.00024548259 5.5128688e-07 0)
(0.00024015209 5.8399978e-07 0)
(0.00023452229 6.1793487e-07 0)
(0.00022858384 6.5300197e-07 0)
(0.00022232853 6.890962e-07 0)
(0.00021574951 7.2606461e-07 0)
(0.00020884151 7.6375156e-07 0)
(0.00020160118 8.0194556e-07 0)
(0.00019402734 8.4043838e-07 0)
(0.00018612145 8.789277e-07 0)
(0.00017788791 9.1709454e-07 0)
(0.00016933452 9.5454181e-07 0)
(0.00016047302 9.9084615e-07 0)
(0.00015131961 1.0254786e-06 0)
(0.00014189551 1.0578514e-06 0)
(0.0001322276 1.0872522e-06 0)
(0.00012234918 1.1129116e-06 0)
(0.00011230066 1.1339077e-06 0)
(0.00010213026 1.1492224e-06 0)
(9.1894879e-05 1.1576968e-06 0)
(8.1660851e-05 1.1580073e-06 0)
(7.1504659e-05 1.1486891e-06 0)
(6.1513677e-05 1.1281249e-06 0)
(5.1786643e-05 1.0944874e-06 0)
(4.2434083e-05 1.0458132e-06 0)
(3.357833e-05 9.799559e-07 0)
(2.5352934e-05 8.9459615e-07 0)
(1.7901452e-05 7.8737893e-07 0)
(1.1374854e-05 6.5575244e-07 0)
(5.9252728e-06 4.9689054e-07 0)
(1.6906547e-06 3.1207735e-07 0)
(-1.1966386e-06 1.1081901e-07 0)
(-2.6696377e-06 -1.1001154e-07 0)
(-2.7820094e-06 -3.2376448e-07 0)
(-1.8458532e-06 -4.6752171e-07 0)
(-4.1979202e-07 -4.1935765e-07 0)
(-4.7469498e-07 1.8710037e-06 0)
(-2.3409165e-06 2.3500429e-06 0)
(-2.7976206e-06 1.0091695e-06 0)
(-8.3081451e-07 -1.2381971e-06 0)
(4.296869e-06 -3.8839614e-06 0)
(1.2886076e-05 -6.6394819e-06 0)
(2.4995536e-05 -9.3562586e-06 0)
(4.0559743e-05 -1.1956383e-05 0)
(5.9442694e-05 -1.4404977e-05 0)
(8.1471882e-05 -1.6691187e-05 0)
(0.00010646072 -1.881702e-05 0)
(0.00013422241 -2.0791307e-05 0)
(0.00016457804 -2.2626466e-05 0)
(0.00019736133 -2.4336437e-05 0)
(0.00023242082 -2.5935313e-05 0)
(0.00026962052 -2.7436678e-05 0)
(0.00030883963 -2.8853194e-05 0)
(0.00034997178 -3.0196081e-05 0)
(0.00039292253 -3.1473762e-05 0)
(0.00043760606 -3.2692253e-05 0)
(0.00048394295 -3.3856153e-05 0)
(0.00053185869 -3.4968213e-05 0)
(0.00058128037 -3.6028463e-05 0)
(0.00063213372 -3.7035621e-05 0)
(0.00068434158 -3.7986814e-05 0)
(0.00073782129 -3.8876861e-05 0)
(0.00079248261 -3.9699557e-05 0)
(0.00084822466 -4.0445366e-05 0)
(0.00090493319 -4.1103675e-05 0)
(0.00096248058 -4.1664244e-05 0)
(0.001020726 -4.211691e-05 0)
(0.0010795153 -4.245158e-05 0)
(0.0011386813 -4.2658555e-05 0)
(0.0011980445 -4.2728928e-05 0)
(0.001257414 -4.2654799e-05 0)
(0.0013165897 -4.2429599e-05 0)
(0.0013753636 -4.2048407e-05 0)
(0.0014335225 -4.1508162e-05 0)
(0.0014908502 -4.0807751e-05 0)
(0.0015471305 -3.994816e-05 0)
(0.0016021495 -3.8932473e-05 0)
(0.001655699 -3.7765908e-05 0)
(0.0017075786 -3.6455714e-05 0)
(0.0017575989 -3.5011025e-05 0)
(0.0018055834 -3.3442791e-05 0)
(0.0018513711 -3.1763415e-05 0)
(0.0018948182 -2.9986639e-05 0)
(0.0019357998 -2.8127248e-05 0)
(0.0019742109 -2.6200731e-05 0)
(0.0020099677 -2.4223056e-05 0)
(0.0020430074 -2.221039e-05 0)
(0.0020732891 -2.017872e-05 0)
(0.002100793 -1.8143767e-05 0)
(0.0021255199 -1.6120641e-05 0)
(0.0021474907 -1.4123608e-05 0)
(0.002166745 -1.216603e-05 0)
(0.0021833397 -1.0260127e-05 0)
(0.0021973478 -8.4168637e-06 0)
(0.0022088566 -6.6459555e-06 0)
(0.0022179659 -4.9557618e-06 0)
(0.0022247865 -3.3532875e-06 0)
(0.0022294381 -1.8441752e-06 0)
(0.0022320473 -4.330664e-07 0)
(0.0022327453 8.768261e-07 0)
(0.0022316746 2.0811936e-06 0)
(0.0022289661 3.1868053e-06 0)
(0.0022247641 4.1878846e-06 0)
(0.0022192066 5.0863479e-06 0)
(0.0022124314 5.8844059e-06 0)
(0.0022045737 6.5847623e-06 0)
(0.0021957649 7.1907008e-06 0)
(0.0021861322 7.7060327e-06 0)
(0.0021757974 8.1350468e-06 0)
(0.0021648768 8.4823163e-06 0)
(0.0021534805 8.7526384e-06 0)
(0.0021417122 8.9508923e-06 0)
(0.0021296691 9.0820544e-06 0)
(0.0021174418 9.1511965e-06 0)
(0.0021051139 9.1635944e-06 0)
(0.0020927619 9.124484e-06 0)
(0.0020804555 9.0388723e-06 0)
(0.0020682576 8.9115549e-06 0)
(0.0020562247 8.7471568e-06 0)
(0.0020444071 8.5502334e-06 0)
(0.002032849 8.3251683e-06 0)
(0.0020215885 8.0761528e-06 0)
(0.0020106583 7.8071009e-06 0)
(0.0020000856 7.5216723e-06 0)
(0.001989893 7.2232815e-06 0)
(0.0019800983 6.9150647e-06 0)
(0.0019707149 6.5999673e-06 0)
(0.0019617525 6.2807572e-06 0)
(0.0019532168 5.9600056e-06 0)
(0.0019451101 5.6400198e-06 0)
(0.0019374318 5.3228086e-06 0)
(0.0019301784 5.0101197e-06 0)
(0.0019233441 4.7035349e-06 0)
(0.0019169208 4.4045077e-06 0)
(0.0019108985 4.1142867e-06 0)
(0.0019052656 3.8340316e-06 0)
(0.0019000088 3.5645887e-06 0)
(0.0018951136 3.3066938e-06 0)
(0.0018905647 3.0609477e-06 0)
(0.0018863459 2.8277679e-06 0)
(0.0018824405 2.6074448e-06 0)
(0.0018788311 2.4001812e-06 0)
(0.0018755004 2.2060266e-06 0)
(0.0018724307 2.0250014e-06 0)
(0.0018696045 1.8570655e-06 0)
(0.0018670043 1.7020616e-06 0)
(0.0018646126 1.5597267e-06 0)
(0.0018624126 1.4297228e-06 0)
(0.0018603877 1.3116763e-06 0)
(0.0018585218 1.2051868e-06 0)
(0.0018567995 1.1097563e-06 0)
(0.001855206 1.0249207e-06 0)
(0.001853727 9.5016574e-07 0)
(0.001852349 8.8495553e-07 0)
(0.0018510592 8.287775e-07 0)
(0.0018498455 7.8105288e-07 0)
(0.0018486965 7.4120637e-07 0)
(0.0018476018 7.0867392e-07 0)
(0.0018465514 6.8288334e-07 0)
(0.0018455364 6.6327348e-07 0)
(0.0018445484 6.493125e-07 0)
(0.0018435798 6.4047713e-07 0)
(0.0018426239 6.3623573e-07 0)
(0.0018416743 6.3611687e-07 0)
(0.0018407256 6.3964188e-07 0)
(0.0018397728 6.4634479e-07 0)
(0.0018388118 6.5579816e-07 0)
(0.0018378389 6.6761306e-07 0)
(0.0018368507 6.8137736e-07 0)
(0.0018358447 6.9677003e-07 0)
(0.0018348188 7.1343542e-07 0)
(0.0018337712 7.31061e-07 0)
(0.0018327006 7.4939877e-07 0)
(0.0018316059 7.6816201e-07 0)
(0.0018304867 7.8714895e-07 0)
(0.0018293426 8.0614732e-07 0)
(0.0018281736 8.2497037e-07 0)
(0.00182698 8.4342839e-07 0)
(0.001825762 8.6139236e-07 0)
(0.0018245205 8.78764e-07 0)
(0.0018232562 8.9543279e-07 0)
(0.00182197 9.1129127e-07 0)
(0.001820663 9.2630259e-07 0)
(0.0018193362 9.4039475e-07 0)
(0.0018179909 9.535284e-07 0)
(0.0018166284 9.6570887e-07 0)
(0.0018152499 9.7690777e-07 0)
(0.0018138567 9.8709664e-07 0)
(0.0018124502 9.9631857e-07 0)
(0.0018110315 1.0045879e-06 0)
(0.0018096021 1.0119258e-06 0)
(0.001808163 1.0183535e-06 0)
(0.0018067155 1.023922e-06 0)
(0.0018052607 1.0286629e-06 0)
(0.0018037997 1.0326424e-06 0)
(0.0018023335 1.0359018e-06 0)
(0.0018008631 1.0384693e-06 0)
(0.0017993893 1.0404393e-06 0)
(0.001797913 1.0418453e-06 0)
(0.0017964348 1.0427399e-06 0)
(0.0017949555 1.0431891e-06 0)
(0.0017934756 1.0432398e-06 0)
(0.0017919956 1.0429478e-06 0)
(0.001790516 1.0423666e-06 0)
(0.0017890371 1.0415567e-06 0)
(0.0017875593 1.0405426e-06 0)
(0.0017860828 1.039404e-06 0)
(0.0017846077 1.0381406e-06 0)
(0.0017831343 1.0368166e-06 0)
(0.0017816625 1.0354955e-06 0)
(0.0017801923 1.0341825e-06 0)
(0.0017787239 1.0328974e-06 0)
(0.001777257 1.03169e-06 0)
(0.0017757916 1.030582e-06 0)
(0.0017743276 1.0296179e-06 0)
(0.0017728647 1.0287688e-06 0)
(0.0017714028 1.028075e-06 0)
(0.0017699416 1.0275699e-06 0)
(0.0017684809 1.0272505e-06 0)
(0.0017670206 1.0271067e-06 0)
(0.0017655603 1.0271746e-06 0)
(0.0017640997 1.027437e-06 0)
(0.0017626386 1.0278964e-06 0)
(0.0017611767 1.0285631e-06 0)
(0.0017597137 1.0294263e-06 0)
(0.0017582494 1.0304712e-06 0)
(0.0017567836 1.0317177e-06 0)
(0.0017553159 1.0331236e-06 0)
(0.0017538463 1.0347109e-06 0)
(0.0017523743 1.0364416e-06 0)
(0.0017508999 1.0383237e-06 0)
(0.0017494228 1.0403265e-06 0)
(0.0017479428 1.0424702e-06 0)
(0.0017464599 1.0447048e-06 0)
(0.0017449738 1.0470208e-06 0)
(0.0017434845 1.0494306e-06 0)
(0.0017419919 1.0518984e-06 0)
(0.0017404958 1.0544141e-06 0)
(0.0017389963 1.056963e-06 0)
(0.0017374932 1.0595215e-06 0)
(0.0017359866 1.0620998e-06 0)
(0.0017344765 1.0646669e-06 0)
(0.0017329628 1.0672141e-06 0)
(0.0017314457 1.069722e-06 0)
(0.0017299251 1.0722087e-06 0)
(0.0017284012 1.074613e-06 0)
(0.0017268739 1.0769603e-06 0)
(0.0017253435 1.0792398e-06 0)
(0.0017238099 1.0814541e-06 0)
(0.0017222733 1.0835571e-06 0)
(0.0017207339 1.0855577e-06 0)
(0.0017191917 1.087488e-06 0)
(0.0017176469 1.0893014e-06 0)
(0.0017160996 1.0910244e-06 0)
(0.00171455 1.0926203e-06 0)
(0.0017129982 1.0941235e-06 0)
(0.0017114444 1.0955233e-06 0)
(0.0017098886 1.0968069e-06 0)
(0.0017083312 1.0979808e-06 0)
(0.001706772 1.0990612e-06 0)
(0.0017052114 1.1000493e-06 0)
(0.0017036495 1.1009366e-06 0)
(0.0017020863 1.1017415e-06 0)
(0.001700522 1.1024612e-06 0)
(0.0016989567 1.1031167e-06 0)
(0.0016973905 1.1037216e-06 0)
(0.0016958234 1.1042518e-06 0)
(0.0016942555 1.1047264e-06 0)
(0.001692687 1.1051558e-06 0)
(0.0016911177 1.1055793e-06 0)
(0.0016895479 1.1059717e-06 0)
(0.0016879774 1.1063545e-06 0)
(0.0016864063 1.106738e-06 0)
(0.0016848346 1.1071271e-06 0)
(0.0016832623 1.1075486e-06 0)
(0.0016816893 1.1080203e-06 0)
(0.0016801155 1.108518e-06 0)
(0.001678541 1.1090581e-06 0)
(0.0016769656 1.1096786e-06 0)
(0.0016753892 1.1103575e-06 0)
(0.0016738118 1.1111289e-06 0)
(0.0016722332 1.1119778e-06 0)
(0.0016706533 1.1129365e-06 0)
(0.0016690719 1.113999e-06 0)
(0.0016674889 1.1151745e-06 0)
(0.0016659041 1.1164706e-06 0)
(0.0016643174 1.1178991e-06 0)
(0.0016627286 1.1194437e-06 0)
(0.0016611375 1.121122e-06 0)
(0.001659544 1.1229444e-06 0)
(0.0016579477 1.1249035e-06 0)
(0.0016563486 1.1270162e-06 0)
(0.0016547464 1.1292608e-06 0)
(0.001653141 1.1316619e-06 0)
(0.0016515321 1.1342066e-06 0)
(0.0016499195 1.1368902e-06 0)
(0.001648303 1.139708e-06 0)
(0.0016466825 1.1426881e-06 0)
(0.0016450577 1.1457775e-06 0)
(0.0016434284 1.1490261e-06 0)
(0.0016417945 1.1523887e-06 0)
(0.0016401558 1.1558704e-06 0)
(0.0016385122 1.15947e-06 0)
(0.0016368634 1.1631975e-06 0)
(0.0016352093 1.1670137e-06 0)
(0.0016335498 1.1709273e-06 0)
(0.0016318847 1.1749323e-06 0)
(0.0016302139 1.179008e-06 0)
(0.0016285373 1.1831747e-06 0)
(0.0016268548 1.1874019e-06 0)
(0.0016251663 1.1916794e-06 0)
(0.0016234718 1.1960172e-06 0)
(0.0016217711 1.2003747e-06 0)
(0.0016200642 1.2047672e-06 0)
(0.0016183511 1.2091789e-06 0)
(0.0016166318 1.2136092e-06 0)
(0.0016149062 1.2180541e-06 0)
(0.0016131743 1.2224796e-06 0)
(0.0016114361 1.2268957e-06 0)
(0.0016096917 1.2312852e-06 0)
(0.001607941 1.2356541e-06 0)
(0.0016061841 1.23998e-06 0)
(0.0016044211 1.2442952e-06 0)
(0.0016026521 1.2485407e-06 0)
(0.001600877 1.252717e-06 0)
(0.0015990959 1.2568563e-06 0)
(0.001597309 1.2609357e-06 0)
(0.0015955162 1.2649543e-06 0)
(0.0015937178 1.2688868e-06 0)
(0.0015919137 1.2727641e-06 0)
(0.0015901042 1.2765594e-06 0)
(0.0015882892 1.2802711e-06 0)
(0.001586469 1.2839348e-06 0)
(0.0015846435 1.2874922e-06 0)
(0.001582813 1.2909688e-06 0)
(0.0015809775 1.294358e-06 0)
(0.0015791371 1.297687e-06 0)
(0.001577292 1.3009415e-06 0)
(0.0015754422 1.3041272e-06 0)
(0.0015735878 1.3072174e-06 0)
(0.001571729 1.3102621e-06 0)
(0.0015698658 1.3132229e-06 0)
(0.0015679984 1.316128e-06 0)
(0.0015661268 1.3189813e-06 0)
(0.0015642511 1.3217636e-06 0)
(0.0015623714 1.3244811e-06 0)
(0.0015604877 1.3271474e-06 0)
(0.0015586003 1.3297701e-06 0)
(0.001556709 1.3323713e-06 0)
(0.0015548139 1.3349361e-06 0)
(0.0015529152 1.3374716e-06 0)
(0.0015510127 1.3399796e-06 0)
(0.0015491067 1.3424632e-06 0)
(0.0015471971 1.3449349e-06 0)
(0.001545284 1.3474058e-06 0)
(0.0015433672 1.3498876e-06 0)