/*--------------------------------*- C++ -*----------------------------------*\
| =========                 |                                                 |
| \\      /  F ield         | OpenFOAM: The Open Source CFD Toolbox           |
|  \\    /   O peration     | Version:  2106                                  |
|   \\  /    A nd           | Website:  www.openfoam.com                      |
|    \\/     M anipulation  |                                                 |
\*---------------------------------------------------------------------------*/
FoamFile
{
    version     2.0;
    format      ascii;
    arch        "LSB;label=32;scalar=64";
    class       volScalarField;
    location    "16.5";
    object      alphas;
}
// * * * * * * * * * * * * * * * * * * * * * * * * * * * * * * * * * * * * * //

dimensions      [0 0 0 0 0 0 0];

internalField   nonuniform List<scalar> 
60000
(
1.2774076e-39
1.9727365e-36
1.3401177e-33
7.1292511e-31
2.996753e-28
3.0127913e-26
8.0910818e-25
9.3212405e-24
6.0512617e-23
2.6257932e-22
8.4464767e-22
2.1588433e-21
4.6158643e-21
8.5815004e-21
1.4352346e-20
2.1761101e-20
3.0533047e-20
4.0077985e-20
4.9707071e-20
5.8509065e-20
6.4321247e-20
6.7820313e-20
7.1028186e-20
7.2891869e-20
7.1895755e-20
6.8256125e-20
6.2692957e-20
5.5899146e-20
4.8466412e-20
4.0895165e-20
3.3593397e-20
2.6868136e-20
2.0921821e-20
1.5858137e-20
1.1696286e-20
8.3903884e-21
5.8505185e-21
3.962513e-21
2.6046062e-21
1.6598966e-21
1.0244628e-21
6.1153889e-22
3.5254872e-22
1.9594749e-22
1.0479217e-22
5.3800575e-23
2.6444358e-23
1.2403628e-23
5.5296333e-24
2.3312846e-24
9.2348649e-25
3.4075131e-25
1.1570595e-25
3.5513666e-26
9.5731526e-27
2.1513516e-27
3.5951401e-28
3.2345784e-29
1.8541508e-30
1.0739627e-31
6.2183954e-33
3.5592052e-34
2.0082037e-35
1.118369e-36
6.156838e-38
3.3536123e-39
1.8082474e-40
9.6549984e-42
5.1067669e-43
2.6764934e-44
1.3902701e-45
7.1579534e-47
3.6529676e-48
1.8478233e-49
9.2643534e-51
4.6035585e-52
2.2671905e-53
1.1066302e-54
5.3536671e-56
2.5675715e-57
1.2207215e-58
5.7542313e-60
2.6896629e-61
1.2468617e-62
5.7335458e-64
2.6157061e-65
1.1841057e-66
5.3198682e-68
2.372411e-69
1.0503254e-70
4.6170587e-72
2.0154567e-73
8.737824e-75
3.762758e-76
1.6096445e-77
6.8409708e-79
2.8887413e-80
1.2120968e-81
5.0539869e-83
3.2902082e-84
2.2217004e-80
3.6587028e-77
2.3638097e-73
1.8616477e-70
7.6753143e-69
1.3498637e-67
1.4518039e-66
1.2006045e-65
7.9661235e-65
4.3138193e-64
1.9250564e-63
6.7236919e-63
1.7899438e-62
3.6615874e-62
5.8585333e-62
7.4995282e-62
7.8864375e-62
6.9754408e-62
5.2874553e-62
3.4873055e-62
2.0270251e-62
1.0498335e-62
4.8910404e-63
2.0672125e-63
7.9874092e-64
2.8389357e-64
9.3301655e-65
2.8481834e-65
8.1133769e-66
2.1693134e-66
5.4783595e-67
1.3137697e-67
3.0029899e-68
6.5617975e-69
1.3747224e-69
2.7713034e-70
5.3969961e-71
1.0185747e-71
1.8659257e-72
3.3202721e-73
5.7450527e-74
9.6794448e-75
1.5887912e-75
2.5376353e-76
3.9353532e-77
5.9184489e-78
8.6465742e-79
1.2334502e-79
1.7305559e-80
2.4042125e-81
3.3198379e-82
4.5550638e-83
6.1883255e-84
8.2824224e-85
1.086456e-85
1.3904618e-86
1.729646e-87
2.0852692e-88
2.4325525e-89
2.7458269e-90
3.0053975e-91
3.20315e-92
3.3438974e-93
3.4414456e-94
3.5112399e-95
3.5633995e-96
3.5997792e-97
3.616705e-98
3.6125792e-99
3.598087e-100
3.6070011e-101
3.7073855e-102
4.0157321e-103
4.7197648e-104
6.1192954e-105
8.6991301e-106
1.3254565e-106
2.1099642e-107
3.4402422e-108
5.6711698e-109
9.3767939e-110
1.5473143e-110
2.5401889e-111
4.1402703e-112
6.6915455e-113
1.0717496e-113
1.7010137e-114
2.6767733e-115
4.1820433e-116
6.5026771e-117
1.0101102e-117
1.5757512e-118
2.4842298e-119
3.9841525e-120
6.5372392e-121
1.1015952e-121
1.9092233e-122
3.4010808e-123
6.2142838e-124
1.1613294e-124
2.2131676e-125
4.288849e-126
8.4302449e-127
1.6771277e-127
3.3705922e-128
6.8320334e-129
1.3945965e-129
2.8627109e-130
5.9007951e-131
1.2195758e-131
2.5236086e-132
5.2202983e-133
1.0778924e-133
2.2182638e-134
4.5432174e-135
9.2466824e-136
1.8674502e-136
3.7371417e-137
7.4007459e-138
1.4485072e-138
2.7989639e-139
5.3344974e-140
1.0019907e-140
1.8536226e-141
3.3754082e-142
6.0474273e-143
1.0655305e-143
1.8455856e-144
3.141261e-145
5.2518075e-146
8.6215976e-147
1.389277e-147
2.1967085e-148
3.4073322e-149
5.1833208e-150
7.7314593e-151
1.1305568e-151
1.620393e-152
2.2759242e-153
3.1318604e-154
4.2211645e-155
5.5706236e-156
7.1953616e-157
9.0927898e-158
1.123683e-158
1.3573546e-159
1.6019463e-160
1.84637e-161
2.0774582e-162
2.2810713e-163
2.4435385e-164
2.5531916e-165
2.6018335e-166
2.5858563e-167
2.5067308e-168
2.3704758e-169
2.1872373e-170
1.9698363e-171
1.732256e-172
1.4881478e-173
1.2495883e-174
1.0262282e-175
8.2487817e-177
6.4949795e-178
5.0149852e-179
3.8024019e-180
2.8361323e-181
2.086074e-182
1.5180595e-183
1.0977025e-184
7.9306412e-186
5.7622886e-187
4.2399088e-188
3.1788655e-189
2.4380448e-190
1.9136855e-191
1.532404e-192
1.2443873e-193
1.0173153e-194
8.3126434e-196
6.7464028e-197
5.4108272e-198
4.2722371e-199
3.311636e-200
2.5152277e-201
1.8693066e-202
1.3582256e-203
9.6430902e-205
6.68782e-206
4.5302882e-207
2.9974099e-208
1.937288e-209
1.2233488e-210
7.5495024e-212
4.5542808e-213
2.6865165e-214
1.5501438e-215
8.7524923e-217
4.8992715e-218
1.3594506e-218
1.4495089e-217
1.4836547e-216
1.2217022e-215
8.3191639e-215
4.8041054e-214
2.4297245e-213
1.1729325e-212
7.5189996e-212
1.2783374e-210
5.0230682e-209
2.4257823e-207
1.1407067e-205
4.7652148e-204
1.6762277e-202
4.8355344e-201
1.1425487e-199
2.2531851e-198
3.7858302e-197
5.5181689e-196
7.1034686e-195
8.2751544e-194
8.9648293e-193
9.1993049e-192
9.0806048e-191
8.8381508e-190
8.6282551e-189
8.3696942e-188
7.8490974e-187
6.9433536e-186
5.7151607e-185
4.3557364e-184
3.0727798e-183
2.0101563e-182
1.2238237e-181
6.9593942e-181
3.7081442e-180
1.8559993e-179
8.7447548e-179
3.8871987e-178
1.6348026e-177
6.5351677e-177
2.511837e-176
9.2662153e-176
3.2650456e-175
1.0969735e-174
3.5164867e-174
1.0769927e-173
3.1550963e-173
8.8520692e-173
2.3816464e-172
6.1535217e-172
1.5293816e-171
3.6636553e-171
8.4785855e-171
1.9006017e-170
4.138642e-170
8.780081e-170
1.8198837e-169
3.6949288e-169
7.3634487e-169
1.4422623e-168
2.777927e-168
5.2608559e-168
9.7905925e-168
1.7892177e-167
3.2085523e-167
5.6429008e-167
9.7302266e-167
1.6452598e-166
2.7297571e-166
4.4489815e-166
7.131579e-166
1.125554e-165
1.7501856e-165
2.681743e-165
4.0487209e-165
6.0224924e-165
8.8309157e-165
1.2781179e-164
1.8296866e-164
2.596737e-164
3.6593079e-164
5.1195292e-164
7.0963335e-164
9.7141003e-164
1.3089733e-163
1.7325631e-163
2.2515909e-163
2.8769474e-163
3.6245003e-163
4.5184497e-163
5.5927981e-163
6.8896817e-163
8.454026e-163
1.0324145e-162
1.2518591e-162
1.5022995e-162
1.7785237e-162
2.0726496e-162
2.3766341e-162
2.6848592e-162
2.995576e-162
3.3114583e-162
3.6400729e-162
3.9934762e-162
4.3855402e-162
4.8276251e-162
5.3247737e-162
5.873675e-162
6.4616861e-162
7.0657433e-162
7.651461e-162
8.1748473e-162
8.589469e-162
8.8591946e-162
8.9712841e-162
8.9404696e-162
8.797672e-162
8.5681537e-162
8.2546043e-162
7.8391054e-162
7.3029307e-162
6.6480345e-162
5.903635e-162
5.1152639e-162
4.327547e-162
3.573608e-162
2.8749618e-162
2.2466476e-162
1.7006807e-162
1.245387e-162
8.8281612e-163
6.0743047e-163
4.0738127e-163
2.6755756e-163
1.7278324e-163
1.0998411e-163
6.9038105e-164
4.2663874e-164
2.5868003e-164
1.5321406e-164
8.8314404e-165
4.9504645e-165
2.7127034e-165
1.4726569e-165
8.0873214e-166
4.5933067e-166
2.7319679e-166
1.6937817e-166
1.0750469e-166
6.8368017e-167
4.2800352e-167
2.6058922e-167
1.5313975e-167
8.6467247e-168
4.6788203e-168
2.4239217e-168
1.2027594e-168
5.7271413e-169
2.6286014e-169
1.17528e-169
5.2484256e-170
2.4638891e-170
1.31127e-170
8.3297516e-171
6.1461227e-171
4.8856493e-171
3.9342382e-171
3.1068083e-171
2.3723277e-171
1.7407003e-171
1.2224855e-171
8.1880739e-172
5.2128114e-172
3.145135e-172
1.7940447e-172
9.6555551e-173
4.894513e-173
2.3333009e-173
1.0448093e-173
4.3910205e-174
1.7315068e-174
6.4075788e-175
2.2266165e-175
7.2728148e-176
2.2356383e-176
6.4766976e-177
1.7709796e-177
4.5777917e-178
1.1203635e-178
2.6001128e-179
5.730743e-180
1.2013016e-180
2.3984614e-181
4.5672065e-182
8.3058706e-183
1.4444394e-183
2.4051508e-184
3.8393057e-185
5.8824997e-186
8.6615823e-187
1.2271447e-187
1.6747404e-188
2.2061815e-189
2.806954e-190
3.4540467e-191
4.1166556e-192
4.7593256e-193
5.3459878e-194
5.8441601e-195
6.2284781e-196
6.4829015e-197
6.6013121e-198
6.5866275e-199
6.4488786e-200
6.2028703e-201
5.8660052e-202
5.4566419e-203
4.9931066e-204
4.4932409e-205
3.9742263e-206
3.4524262e-207
2.9430731e-208
2.4597587e-209
2.0138133e-210
1.6137296e-211
1.2647862e-212
9.6897668e-214
7.2527028e-215
5.3015138e-216
3.7833307e-217
2.635218e-218
1.7912114e-219
1.1879735e-220
7.6869516e-222
4.852427e-223
2.9881284e-224
1.7949719e-225
1.0517653e-226
6.0112787e-228
3.3510666e-229
1.8219828e-230
9.6609763e-232
4.9954688e-233
2.5186272e-234
1.2380194e-235
5.9319708e-237
2.7701158e-238
1.2604615e-239
5.5870716e-241
2.4117695e-242
1.0135387e-243
4.1450983e-245
1.6490571e-246
6.3787703e-248
2.3977768e-249
8.7537733e-251
3.1017928e-252
1.0659756e-253
3.5501931e-255
1.1448398e-256
3.5711227e-258
1.0763898e-259
3.1313442e-261
8.7807261e-263
2.370041e-264
6.1480107e-266
1.5301309e-267
3.6469275e-269
8.3069065e-271
1.8042029e-272
3.7272316e-274
7.3038631e-276
1.353537e-277
2.3642026e-279
3.8777789e-281
5.9479971e-283
8.4926934e-285
1.1229605e-286
1.3671169e-288
1.5223627e-290
1.5390811e-292
1.4006442e-294
1.1361644e-296
8.1212863e-299
0
0
0
0
0
0
0
0
0
3.7017482e-263
3.3018732e-250
1.711153e-246
5.9361514e-243
1.8115096e-239
4.5610163e-236
2.2588116e-37
3.3305564e-34
2.7425475e-31
4.9245188e-28
1.7816492e-25
1.0376494e-23
1.9391614e-22
1.72969e-21
9.1729216e-21
3.4321988e-20
9.8135631e-20
2.2820163e-19
4.5317117e-19
7.9448254e-19
1.2673402e-18
1.8582131e-18
2.542818e-18
3.2834418e-18
4.0272574e-18
4.7270921e-18
5.2833687e-18
5.641796e-18
5.987658e-18
6.2198793e-18
6.262975e-18
6.1195253e-18
5.8185501e-18
5.3962738e-18
4.8886754e-18
4.3296947e-18
3.7503246e-18
3.1775743e-18
2.6335057e-18
2.1346307e-18
1.6917973e-18
1.3105408e-18
9.9179997e-19
7.3285882e-19
5.2838265e-19
3.7142896e-19
2.5434594e-19
1.6950051e-19
1.0980882e-19
6.9069705e-20
4.2122955e-20
2.4868427e-20
1.4187226e-20
7.8049112e-21
4.1305469e-21
2.096819e-21
1.0174122e-21
4.69784e-22
2.052518e-22
8.4204485e-23
3.2088512e-23
1.1175656e-23
3.4637782e-24
9.1131611e-25
1.9653087e-25
4.1263275e-26
8.497914e-27
1.721185e-27
3.4327564e-28
6.7443156e-29
1.3056026e-29
2.4909124e-30
4.6845337e-31
8.6855578e-32
1.5877897e-32
2.8620614e-33
5.0871909e-34
8.9169283e-35
1.5414266e-35
2.6281029e-36
4.4200342e-37
7.3338884e-38
1.2007118e-38
1.9400664e-39
3.0942187e-40
4.8722464e-41
7.5760198e-42
1.163531e-42
1.7653539e-43
2.6466372e-44
3.9215443e-45
5.7439452e-46
8.3184587e-47
1.1913583e-47
1.6876972e-48
2.3652818e-49
3.2801128e-50
4.5018496e-51
6.1159699e-52
8.225926e-53
1.0955169e-53
1.4448893e-54
1.887532e-55
2.4426326e-56
3.1317167e-57
3.9785117e-58
5.0086781e-59
6.2493889e-60
7.728748e-61
9.4753652e-62
1.1646611e-62
3.9989092e-63
3.6035729e-62
3.4896458e-61
2.7914008e-60
1.8699427e-59
1.0250189e-58
4.3844912e-58
1.4132732e-57
3.4419243e-57
6.491538e-57
9.7406082e-57
1.1938672e-56
1.2256481e-56
1.0772764e-56
8.2553654e-57
5.5996331e-57
3.4052401e-57
1.8771398e-57
9.4708985e-58
4.4106897e-58
1.9099679e-58
7.739147e-59
2.950444e-59
1.0634475e-59
3.6401959e-60
1.1884003e-60
3.7151261e-61
1.1161737e-61
3.2328891e-62
9.0507498e-63
2.4545883e-63
6.4615536e-64
1.6541343e-64
4.1252677e-65
1.0039078e-65
2.3873567e-66
5.5543718e-67
1.265487e-67
2.8256633e-68
6.1873544e-69
1.3293711e-69
2.8036528e-70
5.8057762e-71
1.1806868e-71
2.3584806e-72
4.6291872e-73
8.9335979e-74
1.6967625e-74
3.1757414e-75
5.865797e-76
1.0707234e-76
1.9337202e-77
3.4576986e-78
6.1227848e-79
1.0734018e-79
1.8618688e-80
3.1925275e-81
5.4064509e-82
9.0343479e-83
1.4885534e-83
2.4170205e-84
3.8665016e-85
6.0935977e-86
9.4639871e-87
1.4493732e-87
2.1906894e-88
3.2717147e-89
4.8344241e-90
7.0780019e-91
1.0282342e-91
1.4841056e-92
2.1307775e-93
3.0461879e-94
4.3404507e-95
6.1705101e-96
8.7636816e-97
1.2457274e-97
1.7767664e-98
2.5513372e-99
3.7036852e-100
5.4605867e-101
8.2140346e-102
1.2652679e-102
1.9999004e-103
3.2436149e-104
5.3873687e-105
9.1316694e-106
1.5730383e-106
2.7423009e-107
4.8197515e-108
8.5130133e-109
1.5072764e-109
2.6700544e-110
4.7256499e-111
8.3485169e-112
1.471377e-112
2.5865204e-113
4.5355977e-114
7.9371182e-115
1.387125e-115
2.4234683e-116
4.2383565e-117
7.4315294e-118
1.3087348e-118
2.3192285e-119
4.1436559e-120
7.4773249e-121
1.3648591e-121
2.5228628e-122
4.7254329e-123
8.9699645e-124
1.7250202e-124
3.3583915e-125
6.6122555e-126
1.3149463e-126
2.6376346e-127
5.3291261e-128
1.0829729e-128
2.2105313e-129
4.5259497e-130
9.2831689e-131
1.9051121e-131
3.9072588e-132
7.9995711e-133
1.6332246e-133
3.3218383e-134
6.7245188e-135
1.3536917e-135
2.7077566e-136
5.3779501e-137
1.0598819e-137
2.0714653e-138
4.0128394e-139
7.7015987e-140
1.4638294e-140
2.7544067e-141
5.1293328e-142
9.4508994e-143
1.7225191e-143
3.1048847e-144
5.5340136e-145
9.7516987e-146
1.698656e-146
2.9245697e-147
4.9762459e-148
8.3672273e-149
1.3901499e-149
2.2819491e-150
3.700677e-151
5.928656e-152
9.3821418e-153
1.466529e-153
2.2640987e-154
3.4521522e-155
5.1981457e-156
7.7293836e-157
1.134888e-157
1.6453049e-158
2.3550396e-159
3.3279862e-160
4.6426873e-161
6.3934522e-162
8.6906804e-163
1.166004e-163
1.5440142e-164
2.0178412e-165
2.6024904e-166
3.3124001e-167
4.1604141e-168
5.1565932e-169
6.3069332e-170
7.6120836e-171
9.0661787e-172
1.0655909e-172
1.235996e-173
1.4148936e-174
1.5985835e-175
1.7827131e-176
1.9624454e-177
2.1326728e-178
2.2882774e-179
2.4244117e-180
2.5367357e-181
2.6217762e-182
2.6770228e-183
2.7010533e-184
2.6937527e-185
2.6566087e-186
2.5921219e-187
2.5033362e-188
2.3945807e-189
2.2707692e-190
2.1371597e-191
1.9990906e-192
1.8617102e-193
1.7297305e-194
1.6072171e-195
1.4974254e-196
1.4026874e-197
1.3243527e-198
1.262782e-199
1.2173932e-200
1.1867539e-201
1.1687351e-202
1.1658312e-203
3.3777887e-204
1.0134075e-202
4.2461372e-201
1.5332726e-199
4.6273137e-198
1.1616684e-196
2.457845e-195
4.4583899e-194
7.0490042e-193
9.8858353e-192
1.2563117e-190
1.4756958e-189
1.6221023e-188
1.6872371e-187
1.6894305e-186
1.6581997e-185
1.6048862e-184
1.51586e-183
1.3727739e-182
1.1742583e-181
9.4055279e-181
7.0303333e-180
4.9036123e-179
3.1977408e-178
1.9553805e-177
1.1248531e-176
6.1075095e-176
3.1414739e-175
1.5380725e-174
7.1872429e-174
3.2046229e-173
1.3616103e-172
5.5092888e-172
2.1235417e-171
7.8060159e-171
2.7405757e-170
9.2040779e-170
2.961442e-169
9.1414796e-169
2.7106465e-168
7.7301688e-168
2.122604e-167
5.6186428e-167
1.4356026e-166
3.5456317e-166
8.4780174e-166
1.9660287e-165
4.4298954e-165
9.7176329e-165
2.0795151e-164
4.3496019e-164
8.9086292e-164
1.7894748e-163
3.5296076e-163
6.8419478e-163
1.304036e-162
2.4441262e-162
4.5045797e-162
8.1621568e-162
1.4537659e-161
2.5449301e-161
4.3789032e-161
7.4072776e-161
1.2323382e-160
2.0174988e-160
3.2521455e-160
5.1647839e-160
8.0849337e-160
1.2480122e-159
1.9003611e-159
2.855673e-159
4.2372664e-159
6.2131884e-159
9.0120285e-159
1.2943491e-158
1.8422559e-158
2.5993561e-158
3.6348167e-158
5.0330979e-158
6.8929592e-158
9.3252702e-158
1.2450819e-157
1.6399894e-157
2.1315347e-157
2.7359839e-157
3.4726097e-157
4.3646601e-157
5.4397058e-157
6.7287312e-157
8.2635304e-157
1.0072492e-156
1.2175598e-156
1.4580104e-156
1.7278497e-156
2.0249776e-156
2.3464022e-156
2.6889224e-156
3.0498837e-156
3.4278522e-156
3.8230701e-156
4.2375567e-156
4.6747185e-156
5.138373e-156
5.6311892e-156
6.1527254e-156
6.697453e-156
7.2533419e-156
7.8016487e-156
8.318364e-156
8.7772736e-156
9.1538986e-156
9.4290286e-156
9.5905805e-156
9.633226e-156
9.5563481e-156
9.3617157e-156
9.0522769e-156
8.6326425e-156
8.110734e-156
7.4994071e-156
6.8169877e-156
6.0863608e-156
5.332982e-156
4.5825294e-156
3.8587976e-156
3.1821073e-156
2.5682333e-156
2.0277815e-156
1.5659916e-156
1.1830012e-156
8.7457587e-157
6.3321596e-157
4.4945292e-157
3.1311042e-157
2.1434088e-157
1.4433347e-157
9.5682528e-158
6.2474015e-158
4.0179643e-158
2.5448838e-158
1.5869317e-158
9.741552e-159
5.8891298e-159
3.5104982e-159
2.0682691e-159
1.208699e-159
7.0386719e-160
4.1046845e-160
2.4074925e-160
1.4238138e-160
8.490498e-161
5.091602e-161
3.0565877e-161
1.8270157e-161
1.0817021e-161
6.3157956e-162
3.6248424e-162
2.0408465e-162
1.1263507e-162
6.0982499e-163
3.2476563e-163
1.7104911e-163
8.992333e-164
4.7848314e-164
2.6231105e-164
1.5074448e-164
9.1678397e-165
5.8785365e-165
3.914116e-165
2.6537222e-165
1.8000784e-165
1.2057898e-165
7.9070706e-166
5.048201e-166
3.1272367e-166
1.8757777e-166
1.0880269e-166
6.0980709e-167
3.3009222e-167
1.7252678e-167
8.7058367e-168
4.2413169e-168
1.9951194e-168
9.0633241e-169
3.9769859e-169
1.6861132e-169
6.9090879e-170
2.7371897e-170
1.0488158e-170
3.8884107e-171
1.3953993e-171
4.8490605e-172
1.6324187e-172
5.3260317e-173
1.6848363e-173
5.1698277e-174
1.5393576e-174
4.4496546e-175
1.249141e-175
3.406955e-176
9.0314728e-177
2.3278296e-177
5.835833e-178
1.4235334e-178
3.3798301e-179
7.8132011e-180
1.7591777e-180
3.8589744e-181
8.2498402e-182
1.7193168e-182
3.4940051e-183
6.9257081e-184
1.3393344e-184
2.5275783e-185
4.655999e-186
8.3735807e-187
1.4705931e-187
2.5225812e-188
4.2272017e-189
6.9214212e-190
1.1075074e-190
1.7321179e-191
2.648213e-192
3.9585704e-193
5.7860149e-194
8.2708174e-195
1.1563269e-195
1.5803186e-196
2.1150844e-197
2.7716801e-198
3.5535102e-199
4.4571734e-200
5.469688e-201
6.5670171e-202
7.7138425e-203
8.8645535e-204
9.965591e-205
1.0959086e-205
1.1787521e-206
1.2398958e-207
1.2752183e-208
1.2821107e-209
1.2597794e-210
1.2093641e-211
1.1338507e-212
1.0377866e-213
9.2683553e-215
8.0723045e-216
6.8519841e-217
5.6642883e-218
4.5564837e-219
3.5634497e-220
2.7065773e-221
1.9942504e-222
1.4236151e-223
9.8320192e-225
6.5591572e-226
4.2194514e-227
2.6123872e-228
1.5533907e-229
8.8508143e-231
4.8199667e-232
2.5018045e-233
1.2339038e-234
5.7632077e-236
2.5397376e-237
1.0516542e-238
4.0732692e-240
1.4682731e-241
4.8980117e-243
1.5026068e-244
4.2092469e-246
1.0681038e-247
2.4327989e-249
4.9219002e-251
8.7383473e-253
1.3422827e-254
1.7542911e-256
1.9119428e-258
1.6955502e-260
1.186642e-262
6.3016649e-265
2.4100013e-267
6.1677172e-270
1.4421623e-265
6.0223097e-254
2.2295072e-243
2.0464237e-239
7.3945105e-236
2.9469623e-232
3.5592292e-40
3.7707153e-37
4.0340703e-29
1.270725e-25
2.2398635e-23
8.30088e-22
1.1287268e-20
7.9865127e-20
3.536502e-19
1.1451377e-18
2.9362737e-18
6.2476318e-18
1.1554441e-17
1.9130078e-17
2.9075116e-17
4.1093592e-17
5.4650877e-17
6.9041122e-17
8.3446634e-17
9.6905526e-17
1.0869045e-16
1.17454e-16
1.2532622e-16
1.3066331e-16
1.3261755e-16
1.31569e-16
1.2777862e-16
1.2164391e-16
1.1361791e-16
1.0417907e-16
9.3808562e-17
8.2967597e-17
7.2076664e-17
6.1498822e-17
5.1528343e-17
4.2385122e-17
3.4214586e-17
2.7092354e-17
2.1032591e-17
1.5998879e-17
1.191639e-17
8.6842579e-18
6.1871869e-18
4.3055518e-18
2.9234893e-18
1.9347656e-18
1.2464505e-18
7.8063336e-19
4.7454464e-19
2.7951586e-19
1.5920613e-19
8.7479703e-20
4.6239173e-20
2.3428098e-20
1.1327532e-20
5.1953657e-21
2.2417404e-21
8.9917111e-22
3.3064261e-22
1.1570278e-22
3.9854455e-23
1.3508247e-23
4.5043863e-24
1.4779513e-24
4.7728987e-25
1.5173762e-25
4.7496528e-26
1.4640056e-26
4.4441005e-27
1.3287134e-27
3.9132049e-28
1.1353743e-28
3.2456957e-29
9.1432873e-30
2.5385908e-30
6.9479196e-31
1.8748642e-31
4.9891114e-32
1.3094945e-32
3.3908013e-33
8.6638694e-34
2.1848718e-34
5.4392437e-35
1.3370369e-35
3.2458914e-36
7.784001e-37
1.8443425e-37
4.3185728e-38
9.9951096e-39
2.287022e-39
5.1745606e-40
1.1579231e-40
2.5631231e-41
5.6133308e-42
1.2164904e-42
2.6091937e-43
5.5396669e-44
1.164416e-44
2.4235086e-45
4.9952254e-46
1.0197634e-46
2.0622191e-47
4.1315796e-48
8.2015542e-49
1.6133384e-49
3.1452326e-50
6.0774987e-51
1.1640951e-51
2.2108683e-52
4.1954651e-53
9.9633936e-54
1.229173e-53
4.0158535e-53
1.0913651e-52
2.2848825e-52
3.7876693e-52
5.1157513e-52
5.7764882e-52
5.578541e-52
4.6987296e-52
3.5093781e-52
2.3569303e-52
1.440521e-52
8.095121e-53
4.2202508e-53
2.0569603e-53
9.4360387e-54
4.0976614e-54
1.6929209e-54
6.6833383e-55
2.5310305e-55
9.2271747e-56
3.248434e-56
1.1074547e-56
3.6650568e-57
1.1799001e-57
3.7016658e-58
1.1334766e-58
3.3922879e-59
9.9353699e-60
2.8509353e-60
8.0233979e-61
2.2166823e-61
6.0169567e-62
1.6057645e-62
4.2157689e-63
1.0893917e-63
2.7720276e-64
6.9484362e-65
1.7163291e-65
4.1789435e-66
1.0032287e-66
2.3752737e-67
5.5479585e-68
1.2788295e-68
2.9103523e-69
6.5428688e-70
1.4539575e-70
3.1958361e-71
6.9526134e-72
1.497928e-72
3.1974659e-73
6.7641928e-74
1.4183066e-74
2.9474716e-75
6.0699121e-76
1.2384012e-76
2.5024427e-77
5.0069241e-78
9.9169909e-79
1.9440972e-79
3.7718131e-80
7.2424476e-81
1.3765123e-81
2.5902437e-82
4.8275004e-83
8.9151104e-84
1.6322842e-84
2.9648519e-85
5.3461654e-86
9.5767084e-87
1.7053886e-87
3.0209904e-88
5.3267439e-89
9.3542917e-90
1.6369529e-90
2.8561394e-91
4.9716567e-92
8.6397049e-93
1.5001131e-93
2.6049117e-94
4.5288828e-95
7.8934058e-96
1.3810185e-96
2.4287866e-97
4.2992208e-98
7.6677934e-99
1.3790168e-99
2.5018472e-100
4.578664e-101
8.4494149e-102
1.5710954e-102
2.9406206e-103
5.5340891e-104
1.0459552e-104
1.9830834e-105
3.7676207e-106
7.1660611e-107
1.3634191e-107
2.5931326e-108
4.9276561e-109
9.3521497e-110
1.7722798e-110
3.3531639e-111
6.3341239e-112
1.194784e-112
2.2510125e-113
4.2375773e-114
7.9748485e-115
1.5012421e-115
2.8287853e-116
5.3394775e-117
1.0104077e-117
1.918454e-118
3.6577465e-119
7.0082626e-120
1.3502936e-120
2.6175641e-121
5.1071499e-122
1.0031246e-122
1.9834762e-123
3.9474371e-124
7.9043344e-125
1.5916883e-125
3.221225e-126
6.5469897e-127
1.3353001e-127
2.7307055e-128
5.5945403e-129
1.1473148e-129
2.3532666e-130
4.8237273e-131
9.8738046e-132
2.0167884e-132
4.1078277e-133
8.3379885e-134
1.6855756e-134
3.3918241e-135
6.7904128e-136
1.3518714e-136
2.6752711e-137
5.2605098e-138
1.0274638e-138
1.9927399e-139
3.8367304e-140
7.3315057e-141
1.3901231e-141
2.614926e-142
4.8790979e-143
9.028804e-144
1.6568213e-144
3.0145796e-145
5.4380103e-146
9.7247139e-147
1.7238625e-147
3.0289098e-148
5.2747228e-149
9.1036739e-150
1.5570897e-150
2.6391749e-151
4.4326094e-152
7.3767966e-153
1.2163943e-153
1.9872899e-154
3.2167033e-155
5.158303e-156
8.1946884e-157
1.2896499e-157
2.0105242e-158
3.1047712e-159
4.7491703e-160
7.1954684e-161
1.0797902e-161
1.6048891e-162
2.3624508e-163
3.4441353e-164
4.9726247e-165
7.1099812e-166
1.0067436e-166
1.4116546e-167
1.9601532e-168
2.6952423e-169
3.6698445e-170
4.9480828e-171
6.606401e-172
8.7343913e-173
1.1435181e-173
1.4825224e-174
1.9033317e-175
2.4198716e-176
3.0468205e-177
3.7992079e-178
4.6919015e-179
5.7389971e-180
6.9531296e-181
8.3447399e-182
9.9213499e-183
1.1686902e-183
1.364124e-184
1.577982e-185
1.8093743e-186
2.0570196e-187
2.3193424e-188
2.5946296e-189
2.8812739e-190
3.1830183e-191
4.6109466e-192
2.2102666e-191
3.668652e-190
5.515968e-189
7.5225488e-188
9.4506664e-187
1.1046037e-185
1.2109408e-184
1.2600349e-183
1.2632047e-182
1.233319e-181
1.1732688e-180
1.0781972e-179
9.4616592e-179
7.8552086e-178
6.1366265e-177
4.5025643e-176
3.1045076e-175
2.0159931e-174
1.2376375e-173
7.2121574e-173
3.9999757e-172
2.1132669e-171
1.0634059e-170
5.0953878e-170
2.3250161e-169
1.0108295e-168
4.1911098e-168
1.659161e-167
6.2796083e-167
2.2754538e-166
7.905058e-166
2.6365541e-165
8.4533133e-165
2.608596e-164
7.7566911e-164
2.2249206e-163
6.1629775e-163
1.650363e-162
4.2773458e-162
1.0742285e-161
2.6175876e-161
6.1969402e-161
1.4273992e-160
3.2036876e-160
7.0169613e-160
1.5020966e-159
3.147247e-159
6.4630724e-159
1.3024095e-158
2.578077e-158
5.0167802e-158
9.6022892e-158
1.8083849e-157
3.3515287e-157
6.1129184e-157
1.0972373e-156
1.9381748e-156
3.369328e-156
5.7651005e-156
9.7114235e-156
1.6110599e-155
2.6330849e-155
4.2416197e-155
6.7376153e-155
1.0557925e-154
1.6328083e-154
2.4932526e-154
3.7607859e-154
5.6066955e-154
8.2664151e-154
1.2061308e-153
1.742669e-153
2.4946329e-153
3.5392264e-153
4.9766972e-153
6.9343306e-153
9.5697153e-153
1.3072942e-152
1.7667793e-152
2.3612529e-152
3.1201358e-152
4.0767819e-152
5.2690734e-152
6.7402138e-152
8.5394682e-152
1.0722407e-151
1.3350109e-151
1.6486853e-151
2.0196121e-151
2.453524e-151
2.9549519e-151
3.5267121e-151
4.1695984e-151
4.8823752e-151
5.6621045e-151
6.5047627e-151
7.4060335e-151
8.3621064e-151
9.3702767e-151
1.042913e-150
1.1538119e-150
1.2696422e-150
1.3901118e-150
1.5144941e-150
1.6414085e-150
1.7686684e-150
1.8932547e-150
2.0114473e-150
2.1191035e-150
2.2120267e-150
2.2863392e-150
2.3387789e-150
2.3668736e-150
2.368995e-150
2.344341e-150
2.2929035e-150
2.2154646e-150
2.1136265e-150
1.9898445e-150
1.8474193e-150
1.6904117e-150
1.5234648e-150
1.3515484e-150
1.1796557e-150
1.0124937e-150
8.5420155e-151
7.0812854e-151
5.7669031e-151
4.613138e-151
3.624707e-151
2.7978824e-151
2.1221739e-151
1.5823216e-151
1.1603289e-151
8.3729679e-152
5.9489568e-152
4.1639851e-152
2.8727827e-152
1.9543391e-152
1.311389e-152
8.6812844e-153
5.6703927e-153
3.6548551e-153
2.3250742e-153
1.4603828e-153
9.0620691e-154
5.5607839e-154
3.3789408e-154
2.0366481e-154
1.220185e-154
7.2818643e-155
4.3374411e-155
2.5826524e-155
1.5384665e-155
9.1677096e-156
5.4596378e-156
3.2439488e-156
1.9190869e-156
1.1279771e-156
6.574629e-157
3.7949634e-157
2.1678327e-157
1.225886e-157
6.8724102e-158
3.8303098e-158
2.1317159e-158
1.191645e-158
6.7368203e-159
3.877248e-159
2.2823537e-159
1.3757451e-159
8.4667326e-160
5.2869567e-160
3.3233459e-160
2.0863285e-160
1.299065e-160
7.9789117e-161
4.8144744e-161
2.8456284e-161
1.6441774e-161
9.2738149e-162
5.1015835e-162
2.7354321e-162
1.4290805e-162
7.2727991e-163
3.6050707e-163
1.74053e-163
8.1849983e-164
3.7493646e-164
1.6731908e-164
7.2751068e-165
3.082512e-165
1.2729552e-165
5.1243688e-166
2.0112494e-166
7.6978838e-167
2.8736892e-167
1.0465385e-167
3.7187899e-168
1.2896236e-168
4.3653813e-169
1.4426505e-169
4.6554338e-170
1.4672284e-170
4.5170001e-171
1.3585986e-171
3.9929341e-172
1.1468885e-172
3.2199081e-173
8.8373208e-174
2.3714318e-174
6.2225406e-175
1.5967686e-175
4.0075511e-176
9.8383018e-177
2.3626613e-177
5.5507815e-178
1.2758622e-178
2.8692628e-179
6.3134606e-180
1.3592598e-180
2.8633584e-181
5.9017409e-182
1.190148e-182
2.3480919e-183
4.5320059e-184
8.5562928e-185
1.5799707e-185
2.853108e-186
5.037548e-187
8.6949211e-188
1.4667559e-188
2.4175859e-189
3.892321e-190
6.1191672e-191
9.3900883e-192
1.4059126e-192
2.0528413e-193
2.9217022e-194
4.050897e-195
5.4679755e-196
7.1805818e-197
9.1668002e-198
1.1366737e-198
1.3677677e-199
1.5955447e-200
1.8023636e-201
1.9691747e-202
2.0780772e-203
2.115154e-204
2.0731366e-205
1.9532917e-206
1.7654181e-207
1.5282998e-208
1.2633817e-209
9.9472004e-211
7.4241232e-212
5.2728515e-213
3.5498557e-214
2.2492909e-215
1.3346503e-216
7.3811587e-218
3.7850256e-219
1.7892713e-220
7.7463954e-222
3.0487249e-223
1.0816138e-224
3.4259502e-226
9.5816114e-228
2.3360229e-229
4.890896e-231
8.6393898e-233
1.2605468e-234
1.4805817e-236
1.3559739e-238
9.2992041e-241
4.5293154e-243
1.4577024e-245
2.7925258e-248
1.1182121e-246
1.670687e-243
6.4289091e-233
7.5784419e-229
4.7716607e-43
1.3469578e-32
9.8226485e-27
1.1258826e-23
1.1174305e-21
2.7930214e-20
2.8730772e-19
1.6311985e-18
6.1057363e-18
1.7360428e-17
4.016631e-17
7.8545164e-17
1.3555336e-16
2.121538e-16
3.0727443e-16
4.1767413e-16
5.3821865e-16
6.6295705e-16
7.8571139e-16
8.9922901e-16
1.0012511e-15
1.0880224e-15
1.1587902e-15
1.2020014e-15
1.2231929e-15
1.222939e-15
1.2024464e-15
1.1636244e-15
1.108936e-15
1.0412155e-15
9.6349408e-16
8.7884375e-16
7.9024238e-16
7.0046059e-16
6.1197213e-16
5.2688819e-16
4.4691597e-16
3.7334065e-16
3.0702926e-16
2.4845385e-16
1.9773069e-16
1.5467173e-16
1.1884415e-16
8.9633671e-17
6.6307392e-17
4.8072209e-17
3.4125809e-17
2.3698058e-17
1.6081722e-17
1.0652481e-17
6.8790273e-18
4.3247456e-18
2.6428584e-18
1.5670742e-18
8.9969745e-19
4.9888528e-19
2.6634888e-19
1.3637409e-19
6.6649476e-20
3.1221276e-20
1.4381282e-20
6.5192595e-21
2.9096207e-21
1.2787791e-21
5.5351257e-22
2.3598252e-22
9.9105923e-23
4.100449e-23
1.671543e-23
6.7142903e-24
2.6578052e-24
1.0368937e-24
3.9873613e-25
1.511591e-25
5.6499214e-26
2.0824596e-26
7.5702046e-27
2.7146247e-27
9.6041807e-28
3.3530392e-28
1.1553826e-28
3.9301053e-29
1.319948e-29
4.3779122e-30
1.4342285e-30
4.6418798e-31
1.4844868e-31
4.6918882e-32
1.4658475e-32
4.5277201e-33
1.3829245e-33
4.1775574e-34
1.2483222e-34
3.6904961e-35
1.0796131e-35
3.125693e-36
8.9574994e-37
2.5412938e-37
7.1386118e-38
1.9857499e-38
5.4707421e-39
1.4929172e-39
4.0359704e-40
1.0810256e-40
2.869134e-41
7.5464357e-42
1.9672374e-42
5.0832498e-43
1.3020882e-43
3.3067142e-44
8.3263302e-45
2.0791715e-45
5.1561223e-46
1.2881354e-46
3.5998913e-47
1.6363332e-47
1.4257184e-47
1.5038894e-47
1.4784461e-47
1.292673e-47
1.0089338e-47
7.1116973e-48
4.58041e-48
2.7239879e-48
1.5095446e-48
7.8571742e-49
3.8675373e-49
1.8109387e-49
8.1071358e-50
3.4850781e-50
1.4440101e-50
5.785766e-51
2.2481659e-51
8.4930427e-52
3.1262065e-52
1.123352e-52
3.9469973e-53
1.3579358e-53
4.5801405e-54
1.516092e-54
4.9297865e-55
1.5759924e-55
4.957192e-56
1.5352251e-56
4.6841398e-57
1.4087835e-57
4.178506e-58
1.222757e-58
3.5315085e-59
1.0069843e-59
2.8356655e-60
7.8881085e-61
2.1681144e-61
5.8895412e-62
1.5814868e-62
4.1988557e-63
1.1025076e-63
2.8637462e-64
7.3607643e-65
1.872822e-65
4.7186498e-66
1.1777542e-66
2.9132071e-67
7.1436099e-68
1.7370812e-68
4.1896229e-69
1.0024102e-69
2.379375e-70
5.6031263e-71
1.3089712e-71
3.0334065e-72
6.9726141e-73
1.5896119e-73
3.5941129e-74
8.0590891e-75
1.7921734e-75
3.9527593e-76
8.6476005e-77
1.8768833e-77
4.0422157e-78
8.640883e-79
1.8339542e-79
3.8660019e-80
8.0973436e-81
1.6857809e-81
3.4898874e-82
7.1869572e-83
1.4728826e-83
3.0049607e-84
6.1053006e-85
1.235709e-85
2.4923325e-86
5.0109146e-87
1.0046064e-87
2.009093e-88
4.0096033e-89
7.9889328e-90
1.5898915e-90
3.1619636e-91
6.287599e-92
1.2507774e-92
2.4903619e-93
4.9651559e-94
9.9165918e-95
1.9846485e-95
3.9809201e-96
8.0038677e-97
1.6129526e-97
3.25755e-98
6.5919009e-99
1.3361355e-99
2.7117993e-100