/*--------------------------------*- C++ -*----------------------------------*\
| =========                 |                                                 |
| \\      /  F ield         | OpenFOAM: The Open Source CFD Toolbox           |
|  \\    /   O peration     | Version:  2106                                  |
|   \\  /    A nd           | Website:  www.openfoam.com                      |
|    \\/     M anipulation  |                                                 |
\*---------------------------------------------------------------------------*/
FoamFile
{
    version     2.0;
    format      ascii;
    arch        "LSB;label=32;scalar=64";
    class       volScalarField;
    location    "16.5";
    object      dgdt.vapor;
}
// * * * * * * * * * * * * * * * * * * * * * * * * * * * * * * * * * * * * * //

dimensions      [0 0 -1 0 0 0 0];

internalField   nonuniform List<scalar> 
60000
(
1.3131727e-07
-4.1711754e-07
-9.6627631e-07
-1.5158331e-06
-2.0691857e-06
-2.6241357e-06
-3.1793767e-06
-3.7339306e-06
-4.2879795e-06
-4.8373867e-06
-5.3836298e-06
-5.922261e-06
-6.4531165e-06
-6.9770791e-06
-7.487277e-06
-7.9892658e-06
-8.475748e-06
-8.9514057e-06
-9.4114419e-06
-9.8533723e-06
-1.0281045e-05
-1.068775e-05
-1.1077242e-05
-1.1446827e-05
-1.179251e-05
-1.2118381e-05
-1.2419932e-05
-1.2698602e-05
-1.2951063e-05
-1.3179221e-05
-1.338055e-05
-1.3555058e-05
-1.3701312e-05
-1.3819295e-05
-1.3909311e-05
-1.3968417e-05
-1.3998252e-05
-1.3998508e-05
-1.3966239e-05
-1.3905825e-05
-1.3811457e-05
-1.3686706e-05
-1.3529397e-05
-1.3341967e-05
-1.3123338e-05
-1.2873615e-05
-1.2592188e-05
-1.227962e-05
-1.1935302e-05
-1.1564368e-05
-1.1161593e-05
-1.0732183e-05
-1.0275447e-05
-9.7900339e-06
-9.2817753e-06
-8.7470794e-06
-8.1909773e-06
-7.6121769e-06
-7.0149717e-06
-6.3990847e-06
-5.7666262e-06
-5.1181363e-06
-4.4579327e-06
-3.7864364e-06
-3.1042456e-06
-2.4170832e-06
-1.7242228e-06
-1.0250375e-06
-3.2671014e-07
3.7242223e-07
1.069685e-06
1.7616953e-06
2.4492267e-06
3.1316933e-06
3.8007914e-06
4.4641798e-06
5.1116264e-06
5.7514468e-06
6.3746732e-06
6.9819305e-06
7.5761906e-06
8.1502765e-06
8.7099288e-06
9.2501187e-06
9.7715062e-06
1.0274725e-05
1.0758948e-05
1.1222308e-05
1.1667503e-05
1.2092871e-05
1.2497555e-05
1.2883918e-05
1.3250956e-05
1.3599557e-05
1.3927842e-05
1.423887e-05
1.4533045e-05
1.4808137e-05
1.5066536e-05
1.5311136e-05
1.5536973e-05
1.5749366e-05
1.5947457e-05
1.6130457e-05
1.6298812e-05
1.6456576e-05
1.6601882e-05
1.6736754e-05
1.6857872e-05
1.6971892e-05
1.7074896e-05
1.7169358e-05
1.7253547e-05
1.7330975e-05
1.7401686e-05
1.7464668e-05
1.7521952e-05
1.7571761e-05
1.7618641e-05
1.7659211e-05
1.7692962e-05
1.7726096e-05
1.7752263e-05
1.7776843e-05
1.779743e-05
1.7814495e-05
1.782943e-05
1.7842866e-05
1.7852697e-05
1.7861997e-05
1.7867681e-05
1.7872837e-05
1.7878277e-05
1.7880242e-05
1.7882796e-05
1.7884519e-05
1.7883841e-05
1.7883104e-05
1.7883533e-05
1.7879273e-05
1.7879152e-05
1.7876141e-05
1.7873804e-05
1.7870781e-05
1.7867496e-05
1.7863946e-05
1.7860879e-05
1.785863e-05
1.7854814e-05
1.7850514e-05
1.7848371e-05
1.7844439e-05
1.7840838e-05
1.7837273e-05
1.783474e-05
1.7830505e-05
1.7827771e-05
1.7825463e-05
1.7821629e-05
1.7818424e-05
1.7814782e-05
1.7814603e-05
1.7808946e-05
1.7808168e-05
1.7803897e-05
1.7801545e-05
1.7798529e-05
1.7796335e-05
1.7791364e-05
1.7790708e-05
1.7786854e-05
1.7784661e-05
1.7779573e-05
1.7778804e-05
1.7773928e-05
1.7771243e-05
1.7769197e-05
1.7764586e-05
1.7762931e-05
1.7757641e-05
1.7756745e-05
1.7751889e-05
1.7748637e-05
1.7745176e-05
1.774155e-05
1.7737038e-05
1.7733428e-05
1.7728489e-05
1.7725235e-05
1.7720991e-05
1.7716138e-05
1.7712673e-05
1.7707414e-05
1.7703115e-05
1.769843e-05
1.7693288e-05
1.7689274e-05
1.7683209e-05
1.7679655e-05
1.7673997e-05
1.7668368e-05
1.7662427e-05
1.7657121e-05
1.7651603e-05
1.7646435e-05
1.7641707e-05
1.7633746e-05
1.7627908e-05
1.7622156e-05
1.7615246e-05
1.7609286e-05
1.7602713e-05
1.759667e-05
1.7589241e-05
1.7581622e-05
1.757659e-05
1.7568895e-05
1.7562062e-05
1.7553272e-05
1.754629e-05
1.7538824e-05
1.7530922e-05
1.75248e-05
1.751652e-05
1.7507251e-05
1.7499445e-05
1.7491134e-05
1.7483057e-05
1.7473635e-05
1.7464841e-05
1.7457115e-05
1.7448594e-05
1.7439147e-05
1.7429808e-05
1.7422095e-05
1.7412777e-05
1.7402696e-05
1.7394143e-05
1.738381e-05
1.7374101e-05
1.7365538e-05
1.7354202e-05
1.7344995e-05
1.7334711e-05
1.732513e-05
1.7314238e-05
1.7304518e-05
1.7294235e-05
1.7284037e-05
1.7274013e-05
1.7263349e-05
1.7251772e-05
1.7240088e-05
1.7231309e-05
1.7218047e-05
1.7209115e-05
1.7197289e-05
1.7186315e-05
1.7174882e-05
1.7163085e-05
1.7151705e-05
1.7139867e-05
1.7128747e-05
1.7116276e-05
1.7105091e-05
1.7092318e-05
1.7081554e-05
1.7068361e-05
1.7057369e-05
1.7043835e-05
1.7033269e-05
1.7019815e-05
1.7007469e-05
1.6994241e-05
1.6982102e-05
1.6969278e-05
1.6956047e-05
1.6943024e-05
1.6930161e-05
1.6915096e-05
1.6904032e-05
1.6889235e-05
1.6876485e-05
1.6861727e-05
1.6847498e-05
1.6833826e-05
1.6820223e-05
1.6807073e-05
1.6792307e-05
1.6778071e-05
1.6763517e-05
1.6748226e-05
1.6733955e-05
1.6719829e-05
1.6704845e-05
1.668792e-05
1.6673829e-05
1.6658551e-05
1.6644977e-05
1.6629572e-05
1.66162e-05
1.6604165e-05
1.6586611e-05
1.6572421e-05
1.6556417e-05
1.6541068e-05
1.6523709e-05
1.6508843e-05
1.6491309e-05
1.6477206e-05
1.6459201e-05
1.644332e-05
1.642699e-05
1.6410008e-05
1.6393054e-05
1.6377649e-05
1.6360841e-05
1.6342477e-05
1.6326346e-05
1.6309332e-05
1.6292578e-05
1.6274216e-05
1.6258482e-05
1.6241457e-05
1.6222747e-05
1.6205037e-05
1.6188458e-05
1.616988e-05
1.6152155e-05
1.6135236e-05
1.6116432e-05
1.6098717e-05
1.6081587e-05
1.6063323e-05
1.6044276e-05
1.6025753e-05
1.6006835e-05
1.5988619e-05
1.5970184e-05
1.5952483e-05
1.5931695e-05
1.5914597e-05
1.5896344e-05
1.587698e-05
1.5858369e-05
1.5838753e-05
1.5819158e-05
1.5802011e-05
1.5781495e-05
1.5761946e-05
1.57423e-05
1.5723957e-05
1.5704046e-05
1.5684231e-05
1.5664826e-05
1.5645138e-05
1.5626114e-05
1.5606364e-05
1.5586476e-05
1.5566734e-05
1.55473e-05
1.552653e-05
1.5507519e-05
1.5486618e-05
1.5466979e-05
1.5447739e-05
1.5427394e-05
1.5407139e-05
1.5386598e-05
1.5367691e-05
1.5346641e-05
1.532715e-05
1.5305976e-05
1.5285577e-05
1.5266264e-05
1.5246573e-05
1.5226376e-05
1.5204309e-05
1.5183841e-05
1.5164176e-05
1.5143794e-05
1.5123098e-05
1.5100797e-05
1.5081452e-05
1.5061116e-05
1.503907e-05
1.5020248e-05
1.49986e-05
1.497732e-05
1.4957278e-05
1.493555e-05
1.4913411e-05
1.4894659e-05
1.4872661e-05
1.4851224e-05
1.4830242e-05
1.4809251e-05
1.4788772e-05
1.4765933e-05
1.474571e-05
1.4724198e-05
1.4702552e-05
1.4682166e-05
1.4659928e-05
1.4638255e-05
1.4618192e-05
1.4596106e-05
1.4574254e-05
1.4552248e-05
1.4531418e-05
1.4508336e-05
1.4488503e-05
1.4465089e-05
1.4443505e-05
1.4421461e-05
1.4400156e-05
1.4377467e-05
1.4355491e-05
1.4334887e-05
1.4311e-05
1.4288755e-05
1.426686e-05
1.4245007e-05
1.4222282e-05
1.4198932e-05
1.417707e-05
1.4154366e-05
1.4132875e-05
1.4109522e-05
1.4087034e-05
1.4063679e-05
1.4041272e-05
1.4018835e-05
1.399538e-05
1.3971878e-05
1.3949561e-05
1.39261e-05
1.3904873e-05
1.3879743e-05
1.3856758e-05
1.3834158e-05
1.3811289e-05
1.3786944e-05
1.3764354e-05
1.3740956e-05
1.3715535e-05
1.3695036e-05
1.3668261e-05
1.3645613e-05
1.3623197e-05
1.3597753e-05
1.3574486e-05
1.3550127e-05
1.3526389e-05
1.3503502e-05
1.3478265e-05
1.3453969e-05
1.3430115e-05
1.3406129e-05
1.3380514e-05
1.335647e-05
1.3331202e-05
1.3308104e-05
1.3282614e-05
1.3257284e-05
1.3233429e-05
1.320812e-05
1.3184019e-05
1.3158798e-05
1.3132796e-05
1.3108283e-05
1.3082328e-05
1.305803e-05
1.3031403e-05
1.3005941e-05
1.298118e-05
1.2954879e-05
1.2928647e-05
1.2902177e-05
1.2876753e-05
1.2850292e-05
1.2824961e-05
1.2797284e-05
1.2770827e-05
1.2743714e-05
1.2717857e-05
1.2690262e-05
1.2663552e-05
1.2635444e-05
1.2609007e-05
1.258235e-05
1.2553581e-05
1.2527417e-05
1.2498611e-05
1.2470854e-05
1.2444374e-05
1.241526e-05
1.2386276e-05
1.2359138e-05
1.2329246e-05
1.2300915e-05
1.2272953e-05
1.2243945e-05
1.2214773e-05
1.2184943e-05
1.2155771e-05
1.2126112e-05
1.2098022e-05
1.2068142e-05
1.2037725e-05
1.2007432e-05
1.1978258e-05
1.1947631e-05
1.1917027e-05
1.1886723e-05
1.1855121e-05
1.1824461e-05
1.1792863e-05
1.1761353e-05
1.173029e-05
1.169868e-05
1.1668087e-05
1.1637099e-05
1.160356e-05
1.1570809e-05
1.1538734e-05
1.1506849e-05
1.1473176e-05
1.1440705e-05
1.1406302e-05
1.1372632e-05
1.1338055e-05
1.1302964e-05
1.126788e-05
1.1232038e-05
1.1195901e-05
1.1158638e-05
1.1121942e-05
1.1083321e-05
1.1043196e-05
1.1003994e-05
1.0961873e-05
1.0919436e-05
1.0876577e-05
1.0831645e-05
1.0785907e-05
1.0735691e-05
1.0685723e-05
1.0634064e-05
1.0580108e-05
1.0522032e-05
1.0464245e-05
1.0400689e-05
1.033464e-05
1.0266142e-05
1.0194526e-05
1.0117648e-05
1.0036673e-05
9.9510956e-06
9.8621874e-06
9.7664153e-06
9.6671789e-06
9.56077e-06
9.4481493e-06
9.3297972e-06
9.2041e-06
9.0724327e-06
8.9336884e-06
8.7860604e-06
8.6325944e-06
8.4695231e-06
8.3022651e-06
8.1240107e-06
7.93651e-06
7.7445445e-06
7.5427553e-06
7.3323886e-06
7.1137351e-06
6.8876687e-06
6.6544823e-06
6.4129152e-06
6.1631011e-06
5.9079589e-06
5.6437143e-06
5.3723271e-06
5.0959865e-06
4.8135383e-06
4.5221344e-06
4.2265286e-06
3.923301e-06
3.6142521e-06
3.3003251e-06
2.9791651e-06
2.6522399e-06
2.3202831e-06
1.9802287e-06
1.6338754e-06
1.2844973e-06
9.2962411e-07
5.7339464e-07
1.2862846e-07
-4.2157811e-07
-9.779845e-07
-1.5448495e-06
-2.1187241e-06
-2.7037658e-06
-3.2998827e-06
-3.9001545e-06
-4.505265e-06
-5.1145006e-06
-5.7198869e-06
-6.3258599e-06
-6.9244439e-06
-7.5140133e-06
-8.0917767e-06
-8.6589634e-06
-9.2101192e-06
-9.7468171e-06
-1.0259381e-05
-1.0755528e-05
-1.1226927e-05
-1.1674867e-05
-1.2097102e-05
-1.2492456e-05
-1.2860628e-05
-1.3199562e-05
-1.350845e-05
-1.3789086e-05
-1.403512e-05
-1.4252709e-05
-1.4436428e-05
-1.4587707e-05
-1.4708905e-05
-1.4796136e-05
-1.4852878e-05
-1.4876633e-05
-1.4872369e-05
-1.4832977e-05
-1.476769e-05
-1.4669056e-05
-1.4543266e-05
-1.438987e-05
-1.4206035e-05
-1.3994451e-05
-1.3758732e-05
-1.3493634e-05
-1.3203781e-05
-1.2890274e-05
-1.2553485e-05
-1.2191527e-05
-1.1808646e-05
-1.1401736e-05
-1.0974273e-05
-1.0525138e-05
-1.006081e-05
-9.5744115e-06
-9.0744565e-06
-8.5522728e-06
-8.0179229e-06
-7.4689821e-06
-6.9095667e-06
-6.3353455e-06
-5.754408e-06
-5.1627155e-06
-4.5657042e-06
-3.9607322e-06
-3.3515843e-06
-2.741016e-06
-2.1295418e-06
-1.5178521e-06
-9.0588091e-07
-3.0095371e-07
3.0069438e-07
8.9806027e-07
1.486241e-06
2.0693856e-06
2.6396939e-06
3.2000808e-06
3.749079e-06
4.2860095e-06
4.8078476e-06
5.3171535e-06
5.808621e-06
6.2890496e-06
6.7498257e-06
7.1966488e-06
7.6243768e-06
8.0360655e-06
8.4308178e-06
8.8078983e-06
9.170112e-06
9.5133626e-06
9.8410694e-06
1.0152219e-05
1.0445812e-05
1.0723802e-05
1.0987545e-05
1.1233661e-05
1.1464341e-05
1.1683102e-05
1.1885925e-05
1.2076251e-05
1.2255409e-05
1.2418897e-05
1.2573054e-05
1.2714407e-05
1.2844804e-05
1.2964625e-05
1.3075907e-05
1.31774e-05
1.3271441e-05
1.3355645e-05
1.3433074e-05
1.3503444e-05
1.3566748e-05
1.3624392e-05
1.3674573e-05
1.372252e-05
1.3762717e-05
1.3797443e-05
1.3834264e-05
1.3859309e-05
1.3885314e-05
1.3906318e-05
1.3927634e-05
1.3942808e-05
1.3957012e-05
1.396863e-05
1.3978368e-05
1.3986438e-05
1.3993482e-05
1.3999032e-05
1.4001773e-05
1.4003506e-05
1.4006986e-05
1.4007863e-05
1.4009008e-05
1.4008341e-05
1.4008954e-05
1.4007952e-05
1.4004749e-05
1.4005977e-05
1.4003086e-05
1.4000739e-05
1.3997845e-05
1.3996775e-05
1.3995291e-05
1.3989565e-05
1.3988696e-05
1.3987877e-05
1.3984906e-05
1.3982603e-05
1.3980367e-05
1.3977134e-05
1.3974304e-05
1.3973347e-05
1.3970506e-05
1.3967269e-05
1.3966554e-05
1.3965281e-05
1.3962168e-05
1.3960542e-05
1.3957402e-05
1.3955645e-05
1.3953681e-05
1.3953111e-05
1.3950794e-05
1.3947027e-05
1.3947028e-05
1.3945668e-05
1.3943773e-05
1.3943365e-05
1.3939228e-05
1.3938329e-05
1.3936792e-05
1.3934006e-05
1.3932846e-05
1.3930569e-05
1.3930458e-05
1.3927956e-05
1.3924768e-05
1.3924491e-05
1.3922143e-05
1.3919971e-05
1.3915761e-05
1.3914294e-05
1.3913513e-05
1.3910811e-05
1.3908441e-05
1.3905832e-05
1.3902287e-05
1.3902293e-05
1.3897988e-05
1.3896138e-05
1.3892574e-05
1.3889776e-05
1.3885293e-05
1.388208e-05
1.3881189e-05
1.3877119e-05
1.3872765e-05
1.3870517e-05
1.3867445e-05
1.3863138e-05
1.3859649e-05
1.3855841e-05
1.3854082e-05
1.3847414e-05
1.3844844e-05
1.3840548e-05
1.3837683e-05
1.3832579e-05
1.3827971e-05
1.382306e-05
1.3820001e-05
1.381339e-05
1.3810664e-05
1.3805583e-05
1.3798437e-05
1.3794499e-05
1.379136e-05
1.3784798e-05
1.3777734e-05
1.3773482e-05
1.3769553e-05
1.3762155e-05
1.37585e-05
1.3751211e-05
1.3746624e-05
1.3739944e-05
1.3733186e-05
1.3729713e-05
1.3723605e-05
1.3715692e-05
1.3711121e-05
1.3704127e-05
1.369941e-05
1.3692215e-05
1.3683688e-05
1.3679038e-05
1.3672745e-05
1.3665598e-05
1.3658989e-05
1.3651187e-05
1.3643854e-05
1.3635179e-05
1.3629389e-05
1.3621857e-05
1.3615073e-05
1.3608849e-05
1.3601063e-05
1.3593092e-05
1.3585818e-05
1.3579647e-05
1.3570193e-05
1.3562595e-05
1.3554637e-05
1.3547645e-05
1.3539735e-05
1.3531297e-05
1.3522563e-05
1.3517959e-05
1.3508053e-05
1.3498403e-05
1.3490183e-05
1.3481563e-05
1.3473641e-05
1.3466582e-05
1.345637e-05
1.34504e-05
1.3438992e-05
1.3431581e-05
1.3421556e-05
1.3413467e-05
1.3404368e-05
1.3394036e-05
1.3385794e-05
1.3377411e-05
1.3366616e-05
1.3358079e-05
1.334822e-05
1.3339226e-05
1.3329111e-05
1.331843e-05
1.3309406e-05
1.3297841e-05
1.3289225e-05
1.3276389e-05
1.3266872e-05
1.3256713e-05
1.3246975e-05
1.323343e-05
1.3224157e-05
1.3211995e-05
1.3201037e-05
1.3190559e-05
1.3176737e-05
1.3165065e-05
1.3153084e-05
1.3143221e-05
1.3141779e-05
1.3132198e-05
1.3123839e-05
1.3110715e-05
1.309966e-05
1.3087635e-05
1.3074737e-05
1.3061976e-05
1.3051665e-05
1.3036712e-05
1.3027946e-05
1.301405e-05
1.300294e-05
1.2989659e-05
1.2976805e-05
1.2964996e-05
1.2954456e-05
1.2939728e-05
1.2928306e-05
1.2913664e-05
1.2902042e-05
1.2890548e-05
1.2878055e-05
1.2863568e-05
1.2851393e-05
1.2837452e-05
1.2825081e-05
1.2810398e-05
1.2798467e-05
1.2783317e-05
1.2770249e-05
1.2756873e-05
1.2742653e-05
1.272949e-05
1.2714514e-05
1.2703108e-05
1.2688224e-05
1.2674759e-05
1.2659468e-05
1.2645581e-05
1.2633464e-05
1.2616882e-05
1.2603508e-05
1.258777e-05
1.2574097e-05
1.2558353e-05
1.2543761e-05
1.2530587e-05
1.2515884e-05
1.2501031e-05
1.2486694e-05
1.2471154e-05
1.2457326e-05
1.2443656e-05
1.2426137e-05
1.2412489e-05
1.2397215e-05
1.2381053e-05
1.2368145e-05
1.2351125e-05
1.2337623e-05
1.2321392e-05
1.2304342e-05
1.2289811e-05
1.2274161e-05
1.2261141e-05
1.2244504e-05
1.2228722e-05
1.2213024e-05
1.2195728e-05
1.2182369e-05
1.2166804e-05
1.2150481e-05
1.2136945e-05
1.21195e-05
1.2104595e-05
1.2088541e-05
1.2072013e-05
1.2055879e-05
1.2040987e-05
1.2024407e-05
1.2010804e-05
1.1993071e-05
1.1977823e-05
1.1962328e-05
1.1944944e-05
1.1928532e-05
1.1914696e-05
1.1897492e-05
1.1880874e-05
1.1864739e-05
1.1849556e-05
1.1832971e-05
1.1814484e-05
1.1800645e-05
1.1781728e-05
1.1768718e-05
1.1750528e-05
1.1734739e-05
1.1718589e-05
1.1701747e-05
1.168446e-05
1.1668466e-05
1.1650176e-05
1.163521e-05
1.1617828e-05
1.1602233e-05
1.1585063e-05
1.1569044e-05
1.1551626e-05
1.1534389e-05
1.1517819e-05
1.1501007e-05
1.1485184e-05
1.1467515e-05
1.1452001e-05
1.1432629e-05
1.1415315e-05
1.1399262e-05
1.1381941e-05
1.1366175e-05
1.1347251e-05
1.1328927e-05
1.1312108e-05
1.1296058e-05
1.1278504e-05
1.1262139e-05
1.1243621e-05
1.1226869e-05
1.1208501e-05
1.1190689e-05
1.1175116e-05
1.1155316e-05
1.1138744e-05
1.1121391e-05
1.1103937e-05
1.1085559e-05
1.1067904e-05
1.1049479e-05
1.1032103e-05
1.1014502e-05
1.0997483e-05
1.0979198e-05
1.0960626e-05
1.0942753e-05
1.0926298e-05
1.0907289e-05
1.0889259e-05
1.0871265e-05
1.085168e-05
1.0835413e-05
1.0816413e-05
1.0798617e-05
1.0780683e-05
1.0762999e-05
1.0741316e-05
1.0725946e-05
1.0706672e-05
1.0687282e-05
1.0669008e-05
1.0651189e-05
1.0631235e-05
1.0612442e-05
1.0594545e-05
1.0575929e-05
1.0556849e-05
1.0537315e-05
1.0519419e-05
1.0498789e-05
1.0480344e-05
1.0461848e-05
1.0442802e-05
1.0421555e-05
1.0403691e-05
1.0385691e-05
1.0364403e-05
1.0345404e-05
1.0325229e-05
1.030558e-05
1.0287556e-05
1.0266569e-05
1.0247265e-05
1.0227919e-05
1.020747e-05
1.0185977e-05
1.016658e-05
1.0145723e-05
1.012612e-05
1.0105532e-05
1.0085767e-05
1.0064168e-05
1.0044286e-05
1.0024613e-05
1.000225e-05
9.9813411e-06
9.9611954e-06
9.9396155e-06
9.9166745e-06
9.8961604e-06
9.8753351e-06
9.8538586e-06
9.8313997e-06
9.8108772e-06
9.7892521e-06
9.7669206e-06
9.7452287e-06
9.7227999e-06
9.699662e-06
9.6768532e-06
9.6553796e-06
9.6317017e-06
9.6092611e-06
9.5874175e-06
9.5645582e-06
9.5396774e-06
9.5162115e-06
9.4931315e-06
9.4715443e-06
9.4463474e-06
9.4207825e-06
9.3974031e-06
9.3740558e-06
9.3479251e-06
9.3252681e-06
9.2982682e-06
9.2752491e-06
9.2487684e-06
9.2222236e-06
9.1977759e-06
9.1713943e-06
9.1446105e-06
9.1156797e-06
9.0910438e-06
9.0619807e-06
9.0316928e-06
9.0031129e-06
8.9745331e-06
8.9438939e-06
8.9121205e-06
8.8808961e-06
8.8465865e-06
8.8129375e-06
8.7776116e-06
8.7420372e-06
8.7036243e-06
8.6636918e-06
8.6246093e-06
8.5815327e-06
8.5384491e-06
8.4907364e-06
8.4422225e-06
8.3918195e-06
8.3383452e-06
8.2831966e-06
8.2246537e-06
8.1619106e-06
8.0977234e-06
8.0310236e-06
7.958923e-06
7.8837348e-06
7.8033409e-06
7.7220611e-06
7.6337959e-06
7.5427198e-06
7.4470028e-06
7.3481992e-06
7.2453872e-06
7.1360763e-06
7.0258712e-06
6.9080691e-06
6.7865017e-06
6.6631739e-06
6.5333675e-06
6.4032026e-06
6.2631334e-06
6.1246126e-06
5.9799805e-06
5.8301339e-06
5.6773949e-06
5.5190783e-06
5.3597423e-06
5.1913991e-06
5.0200767e-06
4.8418958e-06
4.656049e-06
4.4650596e-06
4.2641742e-06
4.0546261e-06
3.8356071e-06
3.6040684e-06
3.3638661e-06
3.1093384e-06
2.8416449e-06
2.5586509e-06
2.2620908e-06
1.9491909e-06
1.6215581e-06
1.2807666e-06
9.305289e-07
5.7468047e-07
1.2356775e-07
-4.4154784e-07
-1.016402e-06
-1.6050394e-06
-2.2088971e-06
-2.8290194e-06
-3.4616671e-06
-4.1064813e-06
-4.7606188e-06
-5.4205035e-06
-6.0836949e-06
-6.7413868e-06
-7.4002952e-06
-8.0484258e-06
-8.6859468e-06
-9.3081176e-06
-9.9155821e-06
-1.0500433e-05
-1.1067153e-05
-1.1604972e-05
-1.2118076e-05
-1.2601459e-05
-1.3053366e-05
-1.3475515e-05
-1.3863026e-05
-1.4213161e-05
-1.4531737e-05
-1.4810619e-05
-1.5058307e-05
-1.5265538e-05
-1.5436671e-05
-1.5573979e-05
-1.5675032e-05
-1.5739526e-05
-1.5771705e-05
-1.5768828e-05
-1.5737531e-05
-1.5669948e-05
-1.5576031e-05
-1.5454032e-05
-1.530294e-05
-1.5125862e-05
-1.4923941e-05
-1.4698374e-05
-1.4449259e-05
-1.4178328e-05
-1.3888616e-05
-1.3576303e-05
-1.3246844e-05
-1.2899889e-05
-1.2535697e-05
-1.2153359e-05
-1.1759111e-05
-1.1346451e-05
-1.0921608e-05
-1.0484329e-05
-1.0031177e-05
-9.5682361e-06
-9.095885e-06
-8.6128311e-06
-8.1178672e-06
-7.6189017e-06
-7.1086513e-06
-6.593525e-06
-6.0739196e-06
-5.54743e-06
-5.0190058e-06
-4.4915297e-06
-3.9579678e-06
-3.4273273e-06
-2.8967163e-06
-2.3692764e-06
-1.8458749e-06
-1.326797e-06
-8.1349751e-07
-3.0803216e-07
1.9188148e-07
6.8039096e-07
1.1616075e-06
1.6290043e-06
2.0897474e-06
2.5364708e-06
2.9717408e-06
3.3910908e-06
3.7996476e-06
4.1943568e-06
4.5734621e-06
4.9395047e-06
5.2889301e-06
5.6259351e-06
5.9471632e-06
6.2534682e-06
6.5449168e-06
6.8259689e-06
7.0877048e-06
7.3353234e-06
7.5710364e-06
7.7932792e-06
8.0014101e-06
8.1991264e-06
8.3820046e-06
8.5531159e-06
8.71411e-06
8.8619456e-06
9.0010994e-06
9.1301124e-06
9.2485934e-06
9.3598091e-06
9.4590559e-06
9.5523318e-06
9.6387358e-06
9.7141477e-06
9.7844102e-06
9.8494942e-06
9.9082099e-06
9.9623929e-06
1.0006933e-05
1.0050964e-05
1.008937e-05
1.0123543e-05
1.0154231e-05
1.0180875e-05
1.0204463e-05
1.0224219e-05
1.0243253e-05
1.0257548e-05
1.0271193e-05
1.0282638e-05
1.0290891e-05
1.0301059e-05
1.0308279e-05
1.0313362e-05
1.0317168e-05
1.0320748e-05
1.0322646e-05
1.0321313e-05
1.0325368e-05
1.0323625e-05
1.0325617e-05
1.0325066e-05
1.0324737e-05
1.0321588e-05
1.032157e-05
1.0320549e-05
1.0319205e-05
1.031665e-05
1.0316336e-05
1.0312892e-05
1.0312599e-05
1.0310937e-05
1.0308116e-05
1.030577e-05
1.0305025e-05
1.0302726e-05
1.0302009e-05
1.0300598e-05
1.0298468e-05
1.0298291e-05
1.0296321e-05
1.0293851e-05
1.0294984e-05
1.0292679e-05
1.0292061e-05
1.0289809e-05
1.0291496e-05
1.028773e-05
1.0288371e-05
1.0285613e-05
1.0287977e-05
1.0285328e-05
1.0283933e-05
1.0283201e-05
1.0284686e-05
1.0281264e-05
1.0281103e-05
1.0280465e-05
1.0280923e-05
1.0278986e-05
1.0278155e-05
1.0277279e-05
1.0276997e-05
1.0276919e-05
1.0276808e-05
1.0276459e-05
1.027295e-05
1.0272982e-05
1.027067e-05
1.0271675e-05
1.0269418e-05
1.0267756e-05
1.0268147e-05
1.0266231e-05
1.0263373e-05
1.026143e-05
1.0261982e-05
1.0261851e-05
1.0257885e-05
1.0258478e-05
1.0258151e-05
1.0255433e-05
1.0255187e-05
1.0250252e-05
1.025022e-05
1.0248513e-05
1.0246656e-05
1.024296e-05
1.0240329e-05
1.0240256e-05
1.023731e-05
1.0236333e-05
1.0232435e-05
1.0230866e-05
1.0229394e-05
1.0226226e-05
1.0224061e-05
1.0220542e-05
1.0221003e-05
1.0217473e-05
1.0213622e-05
1.0210333e-05
1.0208393e-05
1.0206176e-05
1.0202166e-05
1.0198708e-05
1.0197415e-05
1.0193185e-05
1.0188506e-05
1.018978e-05
1.0181756e-05
1.0179104e-05
1.0175441e-05
1.0170477e-05
1.0168424e-05
1.0167207e-05
1.0160665e-05
1.0160056e-05
1.0153574e-05
1.015043e-05
1.0147716e-05
1.0143021e-05
1.013782e-05
1.0133364e-05
1.013216e-05
1.0124507e-05
1.0122392e-05
1.0118006e-05
1.011283e-05
1.0109819e-05
1.0104656e-05
1.0097992e-05
1.0095067e-05
1.0090605e-05
1.0086119e-05
1.0080981e-05
1.0077443e-05
1.0072774e-05
1.0067263e-05
1.0063106e-05
1.0057058e-05
1.0051546e-05
1.0048187e-05
1.0041983e-05
1.0038034e-05
1.0033715e-05
1.0028108e-05
1.0022107e-05
1.001711e-05
1.0012456e-05
1.000598e-05
1.0000019e-05
9.9966083e-06
9.9925982e-06
9.9844468e-06
9.9788316e-06
9.9741429e-06
9.9696207e-06
9.9607531e-06
9.9562383e-06
9.9512528e-06
9.943612e-06
9.9373537e-06
9.9319858e-06
9.9261394e-06
9.9179538e-06
9.9115219e-06
9.908058e-06
9.8988603e-06
9.8926157e-06
9.8864652e-06
9.8766916e-06
9.8726298e-06
9.8630262e-06
9.8545752e-06
9.8483276e-06
9.8379792e-06
9.8310257e-06
9.822204e-06
9.8098881e-06
9.8033154e-06
9.7983294e-06
9.8024051e-06
9.8038669e-06
9.7943674e-06
9.7869988e-06
9.7771073e-06
9.769528e-06
9.7620327e-06
9.7534779e-06
9.7473132e-06
9.7383172e-06
9.7306234e-06
9.7228011e-06
9.7135097e-06
9.7048799e-06
9.6980002e-06
9.6899444e-06
9.6803133e-06
9.6728988e-06
9.6650313e-06
9.6553033e-06
9.6457359e-06
9.6382408e-06
9.6278308e-06
9.6197481e-06
9.6113022e-06
9.6017968e-06
9.5933982e-06
9.5826621e-06
9.5740942e-06
9.5649979e-06
9.5565302e-06
9.546899e-06
9.5372856e-06
9.528748e-06
9.5166642e-06
9.5093132e-06
9.499599e-06
9.4900319e-06
9.478918e-06
9.4707736e-06
9.4581582e-06
9.4491684e-06
9.4394693e-06
9.4309853e-06
9.4198136e-06
9.4107656e-06
9.3999275e-06
9.3908575e-06
9.3782044e-06
9.3679648e-06
9.3588143e-06
9.3472633e-06
9.3386549e-06
9.3262231e-06
9.3174374e-06
9.3066923e-06
9.2951885e-06
9.2866667e-06
9.2725362e-06
9.2628465e-06
9.2526136e-06
9.2426309e-06
9.2323016e-06
9.2201287e-06
9.2086021e-06
9.1970473e-06
9.1872621e-06
9.175431e-06
9.1658779e-06
9.1559242e-06
9.1436867e-06
9.1317622e-06
9.1214403e-06
9.1087624e-06
9.0989602e-06
9.0872136e-06
9.0773466e-06
9.0653611e-06
9.0548207e-06
9.0442052e-06
9.0311506e-06
9.0199929e-06
9.0091496e-06
8.9984083e-06
8.9874722e-06
8.9758865e-06
8.9629314e-06
8.952624e-06
8.9406819e-06
8.9291393e-06
8.9182106e-06
8.9062311e-06
8.8967252e-06
8.8846257e-06
8.8718429e-06
8.8613602e-06
8.8483647e-06
8.8367157e-06
8.8246371e-06
8.8131062e-06
8.8027866e-06
8.7894835e-06
8.7780806e-06
8.766021e-06
8.7544005e-06
8.7435643e-06
8.7300317e-06
8.7178357e-06
8.7078082e-06
8.6947304e-06
8.6832917e-06
8.6709875e-06
8.660395e-06
8.6492615e-06
8.6353545e-06
8.6246771e-06
8.6111748e-06
8.5990878e-06
8.5853833e-06
8.5746981e-06
8.5630125e-06
8.5506709e-06
8.5412569e-06
8.5257319e-06
8.5153637e-06
8.5014158e-06
8.4901404e-06
8.4772479e-06
8.4647025e-06
8.4522931e-06
8.4396978e-06
8.4278982e-06
8.4156181e-06
8.4036929e-06
8.3908196e-06
8.3796928e-06
8.3670492e-06
8.3525092e-06
8.3402163e-06
8.3296575e-06
8.3159322e-06
8.3040496e-06
8.2903088e-06
8.2793286e-06
8.2655364e-06
8.2536451e-06
8.2419574e-06
8.2283987e-06
8.2160462e-06
8.2019359e-06
8.1914437e-06
8.1759203e-06
8.1656993e-06
8.1516083e-06
8.139665e-06
8.127255e-06
8.1139149e-06
8.1011817e-06
8.0891076e-06
8.07353e-06
8.0628152e-06
8.049235e-06
8.0373289e-06
8.0225532e-06
8.0104594e-06
7.9970308e-06
7.9860101e-06
7.9708712e-06
7.9598741e-06
7.9461238e-06
7.9320165e-06
7.9214787e-06
7.9070044e-06
7.8941577e-06
7.8793207e-06
7.8675886e-06
7.8525012e-06
7.8405118e-06
7.8291998e-06
7.813381e-06
7.8020249e-06
7.7860748e-06
7.7746003e-06
7.7594332e-06
7.7474861e-06
7.7338109e-06
7.7181196e-06
7.7056659e-06
7.6919887e-06
7.6789512e-06
7.6648083e-06
7.6510037e-06
7.6368665e-06
7.6239196e-06
7.6082288e-06
7.5948079e-06
7.5796659e-06
7.5654395e-06
7.5502103e-06
7.5368198e-06
7.5237175e-06
7.5081876e-06
7.4932258e-06
7.4778135e-06
7.4651963e-06
7.4484118e-06
7.4335822e-06
7.4203026e-06
7.4023027e-06
7.388736e-06
7.372026e-06
7.3576498e-06
7.3412702e-06
7.3262578e-06
7.3097358e-06
7.2955196e-06
7.2770113e-06
7.2608366e-06
7.2453431e-06
7.2293057e-06
7.2118463e-06
7.1950747e-06
7.178264e-06
7.1605681e-06
7.1446254e-06
7.1264023e-06
7.1056831e-06
7.0895289e-06
7.0707052e-06
7.052255e-06
7.0316233e-06
7.0149863e-06
6.9927477e-06
6.9723911e-06
6.9513609e-06
6.9292862e-06
6.9080953e-06
6.8854397e-06
6.8604618e-06
6.8361329e-06
6.8119984e-06
6.7842053e-06
6.7577431e-06
6.7294997e-06
6.6983057e-06
6.6686527e-06
6.6379724e-06
6.6011841e-06
6.5665323e-06
6.5298645e-06
6.4916081e-06
6.4488216e-06
6.4038925e-06
6.3620324e-06
6.3121396e-06
6.2627968e-06
6.2107887e-06
6.1553054e-06
6.0963679e-06
6.0377809e-06
5.9749475e-06
5.909748e-06
5.8392577e-06
5.7710095e-06
5.6987324e-06
5.6237664e-06
5.545182e-06
5.4678549e-06
5.3873375e-06
5.3069087e-06
5.2234117e-06
5.1404456e-06
5.0571987e-06
4.9742463e-06
4.8885587e-06
4.8054849e-06
4.7204352e-06
4.634148e-06
4.5484615e-06
4.4601507e-06
4.3702545e-06
4.2785997e-06
4.1804877e-06
4.0801869e-06
3.9719008e-06
3.8554773e-06
3.7296233e-06
3.5939819e-06
3.4433145e-06
3.2789238e-06
3.09717e-06
2.896491e-06
2.679405e-06
2.4380647e-06
2.1789545e-06
1.8939068e-06
1.5899968e-06
1.2666216e-06
9.2507262e-07
5.7310837e-07
1.1732093e-07
-4.6816053e-07
-1.06945e-06
-1.6857204e-06
-2.3212416e-06
-2.9781251e-06
-3.6478255e-06
-4.3349177e-06
-5.0284335e-06
-5.7336064e-06
-6.4416637e-06
-7.1495704e-06
-7.8553688e-06
-8.5479505e-06
-9.2321276e-06
-9.9030989e-06
-1.0550684e-05
-1.1180713e-05
-1.1782988e-05
-1.2358393e-05
-1.2902805e-05
-1.3411847e-05
-1.3889174e-05
-1.4330461e-05
-1.473052e-05
-1.5093266e-05
-1.5418293e-05
-1.5701598e-05
-1.5942777e-05
-1.6145425e-05
-1.6309272e-05
-1.6432604e-05
-1.6518152e-05
-1.6567942e-05
-1.6579775e-05
-1.6558143e-05
-1.6502301e-05
-1.6417849e-05
-1.630313e-05
-1.6160685e-05
-1.599107e-05
-1.5798788e-05
-1.5584653e-05
-1.534914e-05
-1.5093846e-05
-1.4820172e-05
-1.4533395e-05
-1.4227094e-05
-1.3908807e-05
-1.357681e-05
-1.3232212e-05
-1.2877397e-05
-1.2510924e-05
-1.2134534e-05
-1.175027e-05
-1.13571e-05
-1.0954138e-05
-1.0542926e-05
-1.0127746e-05
-9.7047021e-06
-9.2753158e-06
-8.84125e-06
-8.4005373e-06
-7.95476e-06
-7.5090395e-06
-7.0562646e-06
-6.603645e-06
-6.149544e-06
-5.6960505e-06
-5.2399232e-06
-4.7864052e-06
-4.3357204e-06
-3.8871315e-06
-3.4401476e-06
-3.0006415e-06
-2.5643844e-06
-2.1346365e-06
-1.7138219e-06
-1.296187e-06
-8.906225e-07
-4.9233413e-07
-1.0368707e-07
2.7402334e-07
6.4090183e-07
9.960082e-07
1.3416115e-06
1.674761e-06
1.9953158e-06
2.3044281e-06
2.6005019e-06
2.8832772e-06
3.1561227e-06
3.4158725e-06
3.6613631e-06
3.8941741e-06
4.1169904e-06
4.3284892e-06
4.5245392e-06
4.7120716e-06
4.8882128e-06
5.0524419e-06
5.2080411e-06
5.3528444e-06
5.4871475e-06
5.6131169e-06
5.729412e-06
5.8382157e-06
5.9350283e-06
6.0278874e-06
6.1113261e-06
6.1898803e-06
6.2597195e-06
6.3256975e-06
6.3833087e-06
6.439182e-06
6.4861743e-06
6.530138e-06
6.571375e-06
6.6057e-06
6.6390131e-06
6.6659484e-06
6.6898864e-06
6.7127515e-06
6.7316407e-06
6.7494337e-06
6.7657777e-06
6.7749863e-06
6.7883941e-06
6.7966168e-06
6.8046505e-06
6.8100073e-06
6.817711e-06
6.8203106e-06
6.8249371e-06
6.8291908e-06
6.8297592e-06
6.8319762e-06
6.8313818e-06
6.8320031e-06
6.8319881e-06
6.8319044e-06
6.831153e-06
6.8314963e-06
6.829299e-06
6.8303511e-06
6.8274552e-06
6.8277484e-06
6.8237671e-06
6.8251504e-06
6.824675e-06
6.8221758e-06
6.8235378e-06
6.8198657e-06
6.8195118e-06
6.8185405e-06
6.8175031e-06
6.8171558e-06
6.8153905e-06
6.8134857e-06
6.8140234e-06
6.8152124e-06
6.8128883e-06
6.8140472e-06
6.8120406e-06
6.8122932e-06
6.8108525e-06
6.8112771e-06
6.8121968e-06
6.8120042e-06
6.8115368e-06
6.8126266e-06
6.8119175e-06
6.8119146e-06
6.8115968e-06
6.8102762e-06
6.8118892e-06
6.8131194e-06
6.8119225e-06
6.8115972e-06
6.8136324e-06
6.813694e-06
6.8120988e-06
6.8131913e-06
6.8123365e-06
6.812133e-06
6.8129433e-06
6.8135929e-06
6.8121362e-06
6.8130303e-06
6.813664e-06
6.8135827e-06
6.8156353e-06
6.8137285e-06
6.8140961e-06
6.8132355e-06
6.8135784e-06
6.8130607e-06
6.8143061e-06
6.813555e-06
6.8130014e-06
6.8128726e-06
6.8114633e-06
6.8117923e-06
6.8106158e-06
6.8113168e-06
6.8098147e-06
6.8096749e-06
6.8089232e-06
6.8086697e-06
6.8070236e-06
6.8073562e-06
6.8069753e-06
6.8086947e-06
6.8047424e-06
6.8067798e-06
6.8034702e-06
6.8024052e-06
6.8008756e-06
6.8015027e-06
6.8008151e-06
6.8010426e-06
6.8005154e-06
6.7964977e-06
6.7955975e-06
6.7947693e-06
6.7946166e-06
6.794463e-06
6.7898253e-06
6.7901695e-06
6.7875104e-06
6.7869834e-06
6.7865171e-06
6.7845736e-06
6.7819183e-06
6.7808448e-06
6.7793843e-06
6.7770491e-06
6.7774496e-06
6.7749587e-06
6.7719062e-06
6.7720316e-06
6.770091e-06
6.7677863e-06
6.7669744e-06
6.7656765e-06
6.7623205e-06
6.7595731e-06
6.7576427e-06
6.7574395e-06
6.7544673e-06
6.7549583e-06
6.7510556e-06
6.7492671e-06
6.7471419e-06
6.7454049e-06
6.7430601e-06
6.7390136e-06
6.7377776e-06
6.735534e-06
6.7349213e-06
6.7309098e-06
6.7301878e-06
6.7283057e-06
6.7230733e-06
6.7243851e-06
6.7184054e-06
6.71928e-06
6.7167941e-06
6.7127845e-06
6.7112301e-06
6.7071304e-06
6.7059966e-06