/*--------------------------------*- C++ -*----------------------------------*\
| =========                 |                                                 |
| \\      /  F ield         | OpenFOAM: The Open Source CFD Toolbox           |
|  \\    /   O peration     | Version:  2106                                  |
|   \\  /    A nd           | Website:  www.openfoam.com                      |
|    \\/     M anipulation  |                                                 |
\*---------------------------------------------------------------------------*/
FoamFile
{
    version     2.0;
    format      ascii;
    arch        "LSB;label=32;scalar=64";
    class       surfaceScalarField;
    location    "16.5";
    object      phi;
}
// * * * * * * * * * * * * * * * * * * * * * * * * * * * * * * * * * * * * * //

dimensions      [0 3 -1 0 0 0 0];

oriented        oriented;

internalField   nonuniform List<scalar> 
119300
(
-1.2381631e-11
1.2381336e-11
-2.6824005e-11
1.4441991e-11
-3.2320174e-11
5.495739e-12
-2.3396059e-11
-8.9244763e-12
1.6376961e-12
-2.5034085e-11
4.2927126e-11
-4.1289894e-11
1.0004999e-10
-5.7123224e-11
1.7201652e-10
-7.1966878e-11
2.5766175e-10
-8.5645543e-11
3.5579375e-10
-9.8132395e-11
4.6524167e-10
-1.0944815e-10
5.848788e-10
-1.1963751e-10
7.1363344e-10
-1.2875487e-10
8.5048947e-10
-1.3685633e-10
9.9448387e-10
-1.439948e-10
1.1447019e-09
-1.5021822e-10
1.3002709e-09
-1.5556933e-10
1.4603554e-09
-1.6008477e-10
1.6241515e-09
-1.6379641e-10
1.7908825e-09
-1.6673134e-10
1.9597955e-09
-1.6891315e-10
2.130158e-09
-1.7036271e-10
2.3012565e-09
-1.7109868e-10
2.4723956e-09
-1.7113925e-10
2.6428978e-09
-1.7050235e-10
2.8121047e-09
-1.6920712e-10
2.9793781e-09
-1.672738e-10
3.1441035e-09
-1.6472552e-10
3.3056915e-09
-1.6158817e-10
3.4635823e-09
-1.5789098e-10
3.6172488e-09
-1.536667e-10
3.7662005e-09
-1.4895191e-10
3.9099871e-09
-1.4378671e-10
4.0482016e-09
-1.3821477e-10
4.1804841e-09
-1.3228253e-10
4.3065236e-09
-1.2603952e-10
4.4260602e-09
-1.1953696e-10
4.5388875e-09
-1.1282722e-10
4.644851e-09
-1.059637e-10
4.7438501e-09
-9.8999316e-11
4.8358362e-09
-9.1986229e-11
4.9208112e-09
-8.4975051e-11
4.9988252e-09
-7.8014138e-11
5.069974e-09
-7.1148852e-11
5.1343955e-09
-6.4421449e-11
5.1922657e-09
-5.7870247e-11
5.243795e-09
-5.1529483e-11
5.289224e-09
-4.5428957e-11
5.3288182e-09
-3.9594398e-11
5.3628647e-09
-3.4046728e-11
5.3916673e-09
-2.8802606e-11
5.4155418e-09
-2.3874523e-11
5.4348127e-09
-1.9270998e-11
5.4498091e-09
-1.4996493e-11
5.4608612e-09
-1.1052158e-11
5.4682973e-09
-7.4361097e-12
5.4724411e-09
-4.143914e-12
5.473618e-09
-1.1768477e-12
5.4720952e-09
1.5226699e-12
5.468214e-09
3.8813482e-12
5.4622379e-09
5.9759175e-12
5.4544338e-09
7.803977e-12
5.4450554e-09
9.3784772e-12
5.4343403e-09
1.0715027e-11
5.4225103e-09
1.182984e-11
5.4097713e-09
1.2739015e-11
5.3963129e-09
1.345844e-11
5.382309e-09
1.4003983e-11
5.3679175e-09
1.4391189e-11
5.3532825e-09
1.4635212e-11
5.3385323e-09
1.4750099e-11
5.323782e-09
1.4750267e-11
5.3091333e-09
1.4648618e-11
5.2946753e-09
1.4457833e-11
5.2804856e-09
1.4189594e-11
5.2666306e-09
1.3855001e-11
5.2531664e-09
1.3464199e-11
5.2401396e-09
1.3026639e-11
5.2275885e-09
1.2551186e-11
5.2155427e-09
1.204573e-11
5.2040249e-09
1.1517615e-11
5.1930515e-09
1.0973502e-11
5.1826321e-09
1.0419166e-11
5.1727719e-09
9.8601597e-12
5.1634709e-09
9.3009807e-12
5.154725e-09
8.7458755e-12
5.1465264e-09
8.1984525e-12
5.1388646e-09
7.6619765e-12
5.1317256e-09
7.1390044e-12
5.1250937e-09
6.6318122e-12
5.1189514e-09
6.1424064e-12
5.1132794e-09
5.6721082e-12
5.1080571e-09
5.2222773e-12
5.1032632e-09
4.7938645e-12
5.0988758e-09
4.3873825e-12
5.0948725e-09
4.0033066e-12
5.0912306e-09
3.641811e-12
5.0879277e-09
3.3029128e-12
5.0849413e-09
2.9864368e-12
5.0822492e-09
2.6919511e-12
5.07983e-09
2.4192515e-12
5.0776625e-09
2.1675814e-12
5.0757262e-09
1.9363658e-12
5.0740012e-09
1.7249331e-12
5.0724688e-09
1.5324241e-12
5.0711106e-09
1.3581374e-12
5.0699096e-09
1.2010938e-12
5.068849e-09
1.060507e-12
5.0679136e-09
9.3541002e-13
5.0670886e-09
8.2498933e-13
5.0663603e-09
7.2818958e-13
5.0657161e-09
6.4425176e-13
5.0651439e-09
5.7227265e-13
5.0646326e-09
5.113044e-13
5.0641719e-09
4.60705e-13
5.0637525e-09
4.1950923e-13
5.0633655e-09
3.8688415e-13
5.0630033e-09
3.6230782e-13
5.0626582e-09
3.4489577e-13
5.0623241e-09
3.341483e-13
5.0619947e-09
3.2922317e-13
5.061665e-09
3.297904e-13
5.0613297e-09
3.3508429e-13
5.060985e-09
3.4476182e-13
5.0606268e-09
3.5810116e-13
5.0602519e-09
3.7500349e-13
5.0598571e-09
3.9483979e-13
5.0594397e-09
4.1722122e-13
5.0589978e-09
4.4194768e-13
5.0585293e-09
4.6860859e-13
5.0580322e-09
4.9697713e-13
5.0575052e-09
5.2687248e-13
5.056947e-09
5.5801794e-13
5.0563568e-09
5.9025635e-13
5.0557334e-09
6.2329074e-13
5.0550761e-09
6.5719934e-13
5.0543843e-09
6.9179723e-13
5.0536576e-09
7.2672253e-13
5.0528956e-09
7.6213868e-13
5.0520978e-09
7.9781732e-13
5.051264e-09
8.3393405e-13
5.0503939e-09
8.7015084e-13
5.0494873e-09
9.0654054e-13
5.0485443e-09
9.4302899e-13
5.0475646e-09
9.7977394e-13
5.0465479e-09
1.0165857e-12
5.0454944e-09
1.0535629e-12
5.0444038e-09
1.0905842e-12
5.0432762e-09
1.1277744e-12
5.0421112e-09
1.1649551e-12
5.0409088e-09
1.2024033e-12
5.039669e-09
1.2398906e-12
5.0383915e-09
1.2774409e-12
5.0370763e-09
1.3152914e-12
5.0357229e-09
1.3532116e-12
5.0343316e-09
1.3915149e-12
5.0329019e-09
1.4298639e-12
5.0314335e-09
1.4683583e-12
5.0299264e-09
1.5071234e-12
5.0283803e-09
1.5461791e-12
5.0267949e-09
1.5854658e-12
5.0251701e-09
1.6249179e-12
5.0235054e-09
1.6647033e-12
5.0218006e-09
1.7047242e-12
5.0200557e-09
1.7451135e-12
5.01827e-09
1.7855912e-12
5.0164435e-09
1.8265333e-12
5.0145759e-09
1.8676038e-12
5.0126669e-09
1.9089881e-12
5.0107162e-09
1.9506559e-12
5.0087236e-09
1.9925974e-12
5.0066889e-09
2.0347971e-12
5.0046118e-09
2.0771942e-12
5.002492e-09
2.119786e-12
5.0003294e-09
2.1626028e-12
4.9981238e-09
2.2054346e-12
4.9958753e-09
2.2486131e-12
4.9935833e-09
2.2918254e-12
4.9912481e-09
2.3351623e-12
4.9888696e-09
2.3785848e-12
4.9864475e-09
2.4219959e-12
4.983982e-09
2.4654675e-12
4.981473e-09
2.5089769e-12
4.9789207e-09
2.5523454e-12
4.976325e-09
2.595783e-12
4.9736861e-09
2.6388943e-12
4.971004e-09
2.6820877e-12
4.9682789e-09
2.7250391e-12
4.9655111e-09
2.7678487e-12
4.9627005e-09
2.8104752e-12
4.9598476e-09
2.8529188e-12
4.9569525e-09
2.8952131e-12
4.9540155e-09
2.9371243e-12
4.9510366e-09
2.9788269e-12
4.9480163e-09
3.0203108e-12
4.9449548e-09
3.0615136e-12
4.9418525e-09
3.1024416e-12
4.9387094e-09
3.1430987e-12
4.9355259e-09
3.1834478e-12
4.9323023e-09
3.2235575e-12
4.929039e-09
3.263474e-12
4.925736e-09
3.3030599e-12
4.9223937e-09
3.342343e-12
4.9190122e-09
3.3814342e-12
4.9155918e-09
3.4202941e-12
4.9121331e-09
3.4589563e-12
4.9086358e-09
3.4972421e-12
4.9051003e-09
3.5354737e-12
4.901527e-09
3.5734446e-12
4.8979158e-09
3.6112421e-12
4.894267e-09
3.6488246e-12
4.8905809e-09
3.6861208e-12
4.8868576e-09
3.7233448e-12
4.8830972e-09
3.7604309e-12
4.8793e-09
3.7973016e-12
4.875466e-09
3.8340049e-12
4.8715954e-09
3.8704358e-12
4.8676886e-09
3.9069011e-12
4.8637452e-09
3.9431791e-12
4.8597659e-09
3.9793163e-12
4.8557504e-09
4.0153116e-12
4.8516993e-09
4.0511707e-12
4.8476125e-09
4.086779e-12
4.8434902e-09
4.1223183e-12
4.8393324e-09
4.1575955e-12
4.8351396e-09
4.1928965e-12
4.8309117e-09
4.2278708e-12
4.8266489e-09
4.2628188e-12
4.8223515e-09
4.2975081e-12
4.8180194e-09
4.3319897e-12
4.813653e-09
4.3663629e-12
4.8092524e-09
4.4005909e-12
4.804818e-09
4.4345696e-12
4.8003494e-09
4.4684306e-12
4.7958474e-09
4.5021322e-12
4.7913118e-09
4.5357033e-12
4.7867428e-09
4.5690465e-12
4.7821407e-09
4.6022008e-12
4.7775054e-09
4.6352964e-12
4.7728373e-09
4.6682015e-12
4.7681364e-09
4.7009031e-12
4.7634029e-09
4.7335631e-12
4.7586368e-09
4.766025e-12
4.7538384e-09
4.7984252e-12
4.7490076e-09
4.8307792e-12
4.7441447e-09
4.8629485e-12
4.7392496e-09
4.8950393e-12
4.7343225e-09
4.9270411e-12
4.7293636e-09
4.9589568e-12
4.7243728e-09
4.9907394e-12
4.7193504e-09
5.0224558e-12
4.7142962e-09
5.0540474e-12
4.7092105e-09
5.0855765e-12
4.7040936e-09
5.1170705e-12
4.6989452e-09
5.1482897e-12
4.6937657e-09
5.1794767e-12
4.6885552e-09
5.2104255e-12
4.6833137e-09
5.2414082e-12
4.6780416e-09
5.2720725e-12
4.6727391e-09
5.3026377e-12
4.6674061e-09
5.3329382e-12
4.6620432e-09
5.3630536e-12
4.6566502e-09
5.3928391e-12
4.6512277e-09
5.4225712e-12
4.6457759e-09
5.4518745e-12
4.640295e-09
5.4809179e-12
4.6347853e-09
5.509674e-12
4.6292471e-09
5.5381703e-12
4.6236809e-09
5.5663128e-12
4.6180867e-09
5.5941522e-12
4.6124653e-09
5.6215507e-12
4.6068166e-09
5.6486511e-12
4.6011412e-09
5.6754493e-12
4.5954395e-09
5.7017779e-12
4.5897117e-09
5.7277077e-12
4.5839585e-09
5.7532979e-12
4.5781799e-09
5.7785039e-12
4.5723765e-09
5.8032867e-12
4.5665488e-09
5.8277691e-12
4.560697e-09
5.8517211e-12
4.5548216e-09
5.8752651e-12
4.5489231e-09
5.8985522e-12
4.5430018e-09
5.9213537e-12
4.5370581e-09
5.9436768e-12
4.5310924e-09
5.9656282e-12
4.5251052e-09
5.9872154e-12
4.5190969e-09
6.0083089e-12
4.5130679e-09
6.0290001e-12
4.5070186e-09
6.0493215e-12
4.5009494e-09
6.0691719e-12
4.4948608e-09
6.0886131e-12
4.4887531e-09
6.1076699e-12
4.4826269e-09
6.1262849e-12
4.4764825e-09
6.1445462e-12
4.4703202e-09
6.1622305e-12
4.4641407e-09
6.1796092e-12
4.4579443e-09
6.1964573e-12
4.4517312e-09
6.2129569e-12
4.4455023e-09
6.2289428e-12
4.4392576e-09
6.2445787e-12
4.432998e-09
6.2598588e-12
4.4267233e-09
6.2745576e-12
4.4204343e-09
6.2889081e-12
4.4141314e-09
6.3028714e-12
4.4078149e-09
6.3164943e-12
4.4014853e-09
6.3296029e-12
4.3951427e-09
6.342397e-12
4.3887878e-09
6.3548636e-12
4.3824209e-09
6.3669334e-12
4.3760424e-09
6.378674e-12
4.3696525e-09
6.389989e-12
4.3632515e-09
6.4009782e-12
4.3568398e-09
6.4116866e-12
4.3504178e-09
6.4220645e-12
4.3439856e-09
6.4322198e-12
4.3375435e-09
6.4420626e-12
4.3310919e-09
6.4516201e-12
4.3246308e-09
6.4610203e-12
4.3181606e-09
6.4702197e-12
4.3116815e-09
6.4792029e-12
4.3051936e-09
6.4879233e-12
4.298697e-09
6.496523e-12
4.2921919e-09
6.5049261e-12
4.2856788e-09
6.5133571e-12
4.2791572e-09
6.5215798e-12
4.2726275e-09
6.5296994e-12
4.2660899e-09
6.5377548e-12
4.2595443e-09
6.5457335e-12
4.2529907e-09
6.5535295e-12
4.2464294e-09
6.5613348e-12
4.2398603e-09
6.5690827e-12
4.2332836e-09
6.576804e-12
4.2266989e-09
6.5845609e-12
4.2201067e-09
6.5922327e-12
4.2135069e-09
6.5999014e-12
4.2068993e-09
6.6075341e-12
4.2002841e-09
6.6151747e-12
4.1936613e-09
6.6227936e-12
4.1870307e-09
6.6304956e-12
4.1803927e-09
6.6381244e-12
4.173747e-09
6.6457251e-12
4.1670935e-09
6.6533397e-12
4.1604325e-09
6.6609751e-12
4.1537639e-09
6.6686649e-12
4.1470877e-09
6.6762878e-12
4.1404038e-09
6.6838881e-12
4.1337122e-09
6.6915952e-12
4.127013e-09
6.6992521e-12
4.1203061e-09
6.7068265e-12
4.1135916e-09
6.7145157e-12
4.1068694e-09
6.7221525e-12
4.1001394e-09
6.7299008e-12
4.0934018e-09
6.7376747e-12
4.0866563e-09
6.7455004e-12
4.0799032e-09
6.7532603e-12
4.0731423e-09
6.7610049e-12
4.0663734e-09
6.7688103e-12
4.0595967e-09
6.7768072e-12
4.052812e-09
6.7847774e-12
4.0460192e-09
6.7927459e-12
4.0392184e-09
6.8009102e-12
4.0324092e-09
6.8090991e-12
4.0255918e-09
6.8173634e-12
4.018766e-09
6.8257859e-12
4.0119317e-09
6.8343068e-12
4.0050886e-09
6.8429911e-12
3.9982369e-09
6.8518763e-12
3.9913761e-09
6.8608045e-12
3.9845063e-09
6.8698514e-12
3.977627e-09
6.879174e-12
3.9707383e-09
6.8886065e-12
3.96384e-09
6.89825e-12
3.9569319e-09
6.9081604e-12
3.9500136e-09
6.9182322e-12
3.9430851e-09
6.9285569e-12
3.936146e-09
6.9390675e-12
3.9291961e-09
6.9498473e-12
3.9222352e-09
6.9609908e-12
3.9152629e-09
6.9722107e-12
3.908279e-09
6.9837795e-12
3.9012833e-09
6.9956719e-12
3.8942754e-09
7.007729e-12
3.8872553e-09
7.0202098e-12
3.8802223e-09
7.0328848e-12
3.8731764e-09
7.0459789e-12
3.8661169e-09
7.0592445e-12
3.859044e-09
7.0730047e-12
3.8519571e-09
7.0870066e-12
3.8448558e-09
7.1013066e-12
3.8377399e-09
7.1159132e-12
3.8306089e-09
7.1309416e-12
3.8234628e-09
7.1462501e-12
3.8163009e-09
7.1618227e-12
3.8091231e-09
7.1777235e-12
3.801929e-09
7.1940754e-12
3.7947182e-09
7.2107426e-12
3.7874904e-09
7.2277843e-12
3.7802452e-09
7.2450777e-12
3.7729825e-09
7.2628441e-12
3.7657015e-09
7.2808293e-12
3.7584024e-09
7.2992203e-12
3.7510845e-09
7.3179415e-12
3.7437475e-09
7.336963e-12
3.7363911e-09
7.3563411e-12
3.7290151e-09
7.3760952e-12
3.7216189e-09
7.3961321e-12
3.7142025e-09
7.4165414e-12
3.7067653e-09
7.4372975e-12
3.6993069e-09
7.458397e-12
3.6918271e-09
7.4797976e-12
3.6843255e-09
7.5015928e-12
3.6768019e-09
7.5236731e-12
3.6692558e-09
7.5460891e-12
3.6616867e-09
7.5688438e-12
3.6540947e-09
7.5920202e-12
3.6464792e-09
7.6155189e-12
3.6388398e-09
7.6393889e-12
3.6311763e-09
7.6635647e-12
3.6234883e-09
7.6880369e-12
3.6157753e-09
7.7129744e-12
3.6080369e-09
7.7383239e-12
3.6002731e-09
7.7639667e-12
3.592483e-09
7.7899154e-12
3.5846667e-09
7.8163855e-12
3.5768234e-09
7.8431429e-12
3.568953e-09
7.8703091e-12
3.5610551e-09
7.8979355e-12
3.5531291e-09
7.9259566e-12
3.5451747e-09
7.9543506e-12
3.5371914e-09
7.9832787e-12
3.5291788e-09
8.0126364e-12
3.5211365e-09
8.0423603e-12
3.513064e-09
8.0725708e-12
3.5049608e-09
8.1032269e-12
3.4968264e-09
8.1343577e-12
3.4886603e-09
8.1660655e-12
3.4804623e-09
8.1982409e-12
3.4722314e-09
8.2308605e-12
3.4639674e-09
8.2640348e-12
3.4556697e-09
8.2977227e-12
3.4473379e-09
8.3319521e-12
3.4389711e-09
8.3667908e-12
3.430569e-09
8.4021712e-12
3.4221309e-09
8.4381e-12
3.4136563e-09
8.4746125e-12
3.4051446e-09
8.511662e-12
3.3965952e-09
8.5493927e-12
3.3880075e-09
8.5876988e-12
3.3793808e-09
8.6266955e-12
3.3707146e-09
8.6662163e-12
3.3620081e-09
8.7064605e-12
3.3532607e-09
8.7472942e-12
3.3444717e-09
8.7888587e-12
3.3356407e-09
8.8311013e-12
3.3267669e-09
8.8738918e-12
3.3178495e-09
8.9174131e-12
3.3088879e-09
8.9615441e-12
3.2998814e-09
9.0063877e-12
3.2908295e-09
9.0519383e-12
3.2817313e-09
9.0982404e-12
3.2725862e-09
9.1451662e-12
3.2633934e-09
9.1926753e-12
3.2541526e-09
9.2408859e-12
3.2448626e-09
9.2899031e-12
3.2355231e-09
9.3395474e-12
3.2261333e-09
9.3897691e-12
3.2166926e-09
9.4406815e-12
3.2072004e-09
9.4922825e-12
3.1976559e-09
9.5445265e-12
3.1880584e-09
9.5974479e-12
3.1784077e-09
9.6508757e-12
3.1687027e-09
9.7049835e-12
3.158943e-09
9.7597338e-12
3.149128e-09
9.8150034e-12
3.1392571e-09
9.8708565e-12
3.1293298e-09
9.9272939e-12
3.1193455e-09
9.9842546e-12
3.1093039e-09
1.0041753e-11
3.0992042e-09
1.0099616e-11
3.0890463e-09
1.0158025e-11
3.0788295e-09
1.0216872e-11
3.0685533e-09
1.0276118e-11
3.0582176e-09
1.0335726e-11
3.0478218e-09
1.0395656e-11
3.0373658e-09
1.045604e-11
3.0268493e-09
1.0516596e-11
3.0162719e-09
1.0577392e-11
3.0056335e-09
1.0638411e-11
2.9949338e-09
1.0699619e-11
2.9841728e-09
1.0761e-11
2.9733505e-09
1.0822441e-11
2.9624666e-09
1.0883934e-11
2.9515212e-09
1.0945419e-11
2.9405143e-09
1.1006915e-11
2.929446e-09
1.1068363e-11
2.9183162e-09
1.1129713e-11
2.9071252e-09
1.1190927e-11
2.895873e-09
1.1252172e-11
2.8845599e-09
1.1313183e-11
2.8731859e-09
1.1373932e-11
2.8617513e-09
1.1434642e-11
2.8502563e-09
1.1495157e-11
2.8387008e-09
1.1555418e-11
2.8270851e-09
1.1615642e-11
2.8154092e-09
1.1675802e-11
2.8036732e-09
1.1735994e-11
2.791877e-09
1.1796221e-11
2.7800203e-09
1.1856669e-11
2.7681031e-09
1.1917356e-11
2.7561247e-09
1.1978454e-11
2.7440846e-09
1.2040226e-11
2.7319818e-09
1.2102819e-11
2.7198152e-09
1.2166523e-11
2.7075838e-09
1.2231619e-11
2.6952853e-09
1.2298193e-11
2.6829183e-09
1.2367033e-11
2.6704799e-09
1.2438475e-11
2.6579672e-09
1.2512617e-11
2.645377e-09
1.2590203e-11
2.6327051e-09
1.2671923e-11
2.619947e-09
1.2758189e-11
2.6070972e-09
1.2849807e-11
2.5941496e-09
1.2947494e-11
2.5810977e-09
1.3052013e-11
2.5679334e-09
1.3164162e-11
2.5546484e-09
1.3285063e-11
2.5412327e-09
1.3415547e-11
2.5276759e-09
1.355681e-11
2.5139661e-09
1.3709784e-11
2.5000901e-09
1.3875919e-11
2.4860337e-09
1.4056364e-11
2.4717812e-09
1.4252573e-11
2.4573152e-09
1.4465863e-11
2.4426174e-09
1.4697871e-11
2.4276674e-09
1.4950041e-11
2.4124433e-09
1.522408e-11
2.3969215e-09
1.5521818e-11
2.3810765e-09
1.5844987e-11
2.3648809e-09
1.6195567e-11
2.3483055e-09
1.6575437e-11
2.3313189e-09
1.6986652e-11
2.3138875e-09
1.7431395e-11
2.2959759e-09
1.7911634e-11
2.2775462e-09
1.8429751e-11
2.2585584e-09
1.8987924e-11
2.23897e-09
1.958843e-11
2.2187363e-09
2.0233538e-11
2.1978107e-09
2.0925715e-11
2.1761435e-09
2.1667138e-11
2.1536835e-09
2.246009e-11
2.1303766e-09
2.3306816e-11
2.1061671e-09
2.4209517e-11
2.0809971e-09
2.5170208e-11
2.0548064e-09
2.619061e-11
2.0275337e-09
2.7272724e-11
1.9991158e-09
2.8417893e-11
1.9694881e-09
2.9627614e-11
1.9385854e-09
3.0902618e-11
1.9063416e-09
3.2243708e-11
1.8726909e-09
3.3650782e-11
1.8375673e-09
3.5123526e-11
1.8009063e-09
3.6661122e-11
1.7626445e-09
3.8261731e-11
1.7227217e-09
3.9922858e-11
1.6810803e-09
4.1641344e-11
1.6376678e-09
4.3412666e-11
1.5924365e-09
4.5231237e-11
1.5453462e-09
4.7090241e-11
1.4963648e-09
4.8981391e-11
1.4454704e-09
5.0894548e-11
1.3926526e-09
5.2817733e-11
1.3379153e-09
5.4737304e-11
1.2812784e-09
5.6636912e-11
1.2227802e-09
5.8498056e-11
1.1624808e-09
6.0299487e-11
1.100464e-09
6.2016805e-11
1.0368413e-09
6.3622689e-11
9.7175478e-10
6.508641e-11
9.0538103e-10
6.6373936e-11
8.3793416e-10
6.7446764e-11
7.6967085e-10
6.8263315e-11
7.008932e-10
6.87777e-11
6.3195334e-10
6.8939793e-11
5.6325749e-10
6.8695849e-11
4.9526933e-10
6.7988147e-11
4.2851382e-10
6.6755632e-11
3.6357952e-10
6.4934354e-11
3.0112091e-10
6.2458641e-11
2.4185836e-10
5.9262418e-11
1.8657648e-10
5.5281957e-11
1.3611706e-10
5.0459419e-11
9.1367206e-11
4.4749848e-11
5.3237307e-11
3.81299e-11
2.2625369e-11
3.0611956e-11
3.148826e-13
2.2310471e-11
-1.330165e-11
1.3616678e-11
-1.810722e-11
4.8055085e-12
-1.4958109e-11
-3.1490467e-12
-6.8803309e-12
-8.077746e-12
-6.8803578e-12
-1.4379754e-11
2.6760717e-11
-2.4217535e-11
2.4279533e-11
-9.4077443e-12
-9.314384e-12
3.9918773e-11
-5.8251216e-11
1.2866448e-10
-1.1378012e-10
2.582177e-10
-1.7084348e-10
4.2779272e-10
-2.2669851e-10
6.3563154e-10
-2.7980591e-10
8.7937332e-10
-3.2938767e-10
1.1563573e-09
-3.7511684e-10
1.4638148e-09
-4.1690602e-10
1.7989746e-09
-4.5479754e-10
2.1591192e-09
-4.888999e-10
2.5416136e-09
-5.1935099e-10
2.9439155e-09
-5.4629681e-10
3.3635763e-09
-5.6987938e-10
3.798237e-09
-5.9023039e-10
4.2456203e-09
-6.0746858e-10
4.7035232e-09
-6.2169944e-10
5.169808e-09
-6.3301637e-10
5.6423963e-09
-6.4150189e-10
6.1192642e-09
-6.472305e-10
6.5984368e-09
-6.5027169e-10
7.0779897e-09
-6.506924e-10
7.5560476e-09
-6.4856057e-10
8.0307884e-09
-6.4394788e-10
8.5004465e-09
-6.3693218e-10
8.963321e-09
-6.2760015e-10
9.4177817e-09
-6.160491e-10
9.8622794e-09
-6.0238861e-10
1.0295354e-08
-5.8674111e-10
1.0715644e-08
-5.6924253e-10
1.1121899e-08
-5.5004181e-10
1.1512985e-08
-5.293005e-10
1.1887893e-08
-5.0719147e-10
1.224575e-08
-4.8389678e-10
1.2585819e-08
-4.5960582e-10
1.2907505e-08
-4.3451339e-10
1.3210357e-08
-4.0881601e-10
1.3494068e-08
-3.827104e-10
1.3758472e-08
-3.5639015e-10
1.400354e-08
-3.3004326e-10
1.4229376e-08
-3.0384977e-10
1.4436206e-08
-2.7797966e-10
1.4624375e-08
-2.5259062e-10
1.4794332e-08
-2.2782703e-10
1.494662e-08
-2.0381827e-10
1.508187e-08
-1.8067858e-10
1.5200781e-08
-1.5850518e-10
1.5304114e-08
-1.3737974e-10
1.5392679e-08
-1.1736768e-10
1.5467323e-08
-9.8518871e-11
1.552892e-08
-8.0867823e-11
1.5578359e-08
-6.4435395e-11
1.5616535e-08
-4.9229105e-11
1.5644344e-08
-3.5244741e-11
1.5662669e-08
-2.2468831e-11
1.5672371e-08
-1.0879279e-11
1.5674291e-08
-3.973886e-13
1.566926e-08
8.9124525e-12
1.5658048e-08
1.7188461e-11
1.5641399e-08
2.4452918e-11
1.5620022e-08
3.0755329e-11
1.5594583e-08
3.6153685e-11
1.5565707e-08
4.070637e-11
1.5533973e-08
4.4472136e-11
1.5499922e-08
4.7509985e-11
1.5464047e-08
4.9878603e-11
1.5426803e-08
5.1635372e-11
1.5388602e-08
5.283647e-11
1.5349816e-08
5.3536104e-11
1.531078e-08
5.3786283e-11
1.5271791e-08
5.3636983e-11
1.5233114e-08
5.3135538e-11
1.5194977e-08
5.2326236e-11
1.5157581e-08
5.125088e-11
1.5121097e-08
4.9948656e-11
1.5085667e-08
4.8455794e-11
1.5051413e-08
4.6805823e-11
1.5018429e-08
4.5029257e-11
1.4986793e-08
4.3154443e-11
1.495656e-08
4.120672e-11
1.492777e-08
3.9209351e-11
1.4900447e-08
3.7183063e-11
1.4874602e-08
3.5146198e-11
1.4850232e-08
3.3115128e-11
1.4827326e-08
3.1104503e-11
1.4805862e-08
2.9126607e-11
1.4785808e-08
2.7192335e-11
1.4767129e-08
2.5310685e-11
1.4749782e-08
2.3489684e-11
1.4733719e-08
2.1735531e-11
1.4718888e-08
2.0053214e-11
1.4705235e-08
1.8446742e-11
1.4692703e-08
1.6919148e-11
1.4681234e-08
1.5472328e-11
1.4670769e-08
1.4107289e-11
1.4661247e-08
1.2824534e-11
1.4652609e-08
1.1623898e-11
1.4644797e-08
1.050449e-11
1.4637751e-08
9.4649501e-12
1.4631415e-08
8.503608e-12
1.4625733e-08
7.6181521e-12
1.4620652e-08
6.8062762e-12
1.4616119e-08
6.0654059e-12
1.4612084e-08
5.3923933e-12
1.4608501e-08
4.7843721e-12
1.4605324e-08
4.2379933e-12
1.4602509e-08
3.7502943e-12
1.4600016e-08
3.3176936e-12
1.4597807e-08
2.9371369e-12
1.4595846e-08
2.6053858e-12
1.4594099e-08
2.3189496e-12
1.4592536e-08
2.0748252e-12
1.4591127e-08
1.87003e-12
1.4589845e-08
1.7014567e-12
1.4588665e-08
1.5661813e-12
1.4587566e-08
1.4613891e-12
1.4586527e-08
1.3846758e-12
1.4585527e-08
1.333323e-12
1.4584551e-08
1.3051902e-12
1.4583583e-08
1.2980401e-12
1.4582608e-08
1.3095229e-12
1.4581615e-08
1.3379322e-12
1.4580592e-08
1.381284e-12
1.4579529e-08
1.4381115e-12
1.4578417e-08
1.5068085e-12
1.4577248e-08
1.5859393e-12
1.4576016e-08
1.6741244e-12
1.4574715e-08
1.7702696e-12
1.4573338e-08
1.8733874e-12
1.4571883e-08
1.9824676e-12
1.4570344e-08
2.0966776e-12
1.4568719e-08
2.2152587e-12
1.4567005e-08
2.3376855e-12
1.4565199e-08
2.4631516e-12
1.4563299e-08
2.5911764e-12
1.4561304e-08
2.72158e-12
1.4559213e-08
2.8537339e-12
1.4557023e-08
2.9874102e-12
1.4554735e-08
3.122334e-12
1.4552347e-08
3.2582822e-12
1.4549858e-08
3.3951822e-12
1.4547268e-08
3.5327997e-12
1.4544577e-08
3.6711001e-12
1.4541784e-08
3.8099183e-12
1.4538888e-08
3.9493496e-12
1.4535889e-08
4.0892208e-12
1.4532787e-08
4.2297266e-12
1.4529581e-08
4.3707632e-12
1.4526271e-08
4.5123471e-12
1.4522857e-08
4.6545051e-12
1.4519337e-08
4.7974322e-12
1.4515711e-08
4.9408826e-12
1.4511979e-08
5.0851302e-12
1.4508141e-08
5.2302362e-12
1.4504194e-08
5.3761096e-12
1.450014e-08
5.5228421e-12
1.4495977e-08
5.6705511e-12
1.4491703e-08
5.8191399e-12
1.448732e-08
5.9689818e-12
1.4482825e-08
6.1196934e-12
1.4478219e-08
6.2714701e-12
1.4473499e-08
6.4243477e-12
1.4468666e-08
6.578366e-12
1.4463718e-08
6.7335048e-12
1.4458655e-08
6.8897275e-12
1.4453475e-08
7.0470996e-12
1.4448179e-08
7.2055968e-12
1.4442764e-08
7.3651503e-12
1.4437231e-08
7.5256949e-12
1.4431579e-08
7.6872717e-12
1.4425806e-08
7.8496879e-12
1.4419913e-08
8.0132234e-12
1.4413898e-08
8.1773603e-12
1.4407761e-08
8.3423766e-12
1.4401502e-08
8.5079027e-12
1.439512e-08
8.6739768e-12
1.4388614e-08
8.8406728e-12
1.4381985e-08
9.0077654e-12
1.4375232e-08
9.1749661e-12
1.4368355e-08
9.3423973e-12
1.4361354e-08
9.5098288e-12
1.435423e-08
9.6773307e-12
1.4346981e-08
9.8445689e-12
1.4339608e-08
1.0011624e-11
1.4332112e-08
1.0178331e-11
1.4324492e-08
1.034461e-11
1.431675e-08
1.0510306e-11
1.4308885e-08
1.0675396e-11
1.4300898e-08
1.083985e-11
1.429279e-08
1.1003675e-11
1.428456e-08
1.1166628e-11
1.4276211e-08
1.1328633e-11
1.4267741e-08
1.148985e-11
1.4259152e-08
1.1650163e-11
1.4250445e-08
1.1809505e-11
1.424162e-08
1.1967996e-11
1.4232679e-08
1.2125519e-11
1.422362e-08
1.2282107e-11
1.4214446e-08
1.2437613e-11
1.4205157e-08
1.2592381e-11
1.4195753e-08
1.2746124e-11
1.4186235e-08
1.2899032e-11
1.4176605e-08
1.3051071e-11
1.4166861e-08
1.3202303e-11
1.4157006e-08
1.3352697e-11
1.4147039e-08
1.3502261e-11
1.4136962e-08
1.3651152e-11
1.4126773e-08
1.3799213e-11
1.4116475e-08
1.3946701e-11
1.4106068e-08
1.4093391e-11
1.4095552e-08
1.4239564e-11
1.4084928e-08
1.4385057e-11
1.4074195e-08
1.4529901e-11
1.4063355e-08
1.4674255e-11
1.4052407e-08
1.4818043e-11
1.4041353e-08
1.4961147e-11
1.4030193e-08
1.5103809e-11
1.4018926e-08
1.5245816e-11
1.4007554e-08
1.5387278e-11
1.3996077e-08
1.5528259e-11
1.3984495e-08
1.5668516e-11
1.3972809e-08
1.5808351e-11
1.3961019e-08
1.5947592e-11
1.3949126e-08
1.6086171e-11
1.3937129e-08
1.6224217e-11
1.392503e-08
1.6361623e-11
1.391283e-08
1.6498298e-11
1.3900527e-08
1.6634475e-11
1.3888123e-08
1.6770006e-11
1.3875619e-08
1.6904857e-11
1.3863015e-08
1.7039036e-11
1.3850311e-08
1.7172557e-11
1.3837508e-08
1.7305464e-11
1.3824605e-08
1.7437586e-11
1.3811605e-08
1.7569227e-11
1.3798507e-08
1.7700157e-11
1.3785312e-08
1.7830667e-11
1.3772019e-08
1.7960597e-11
1.375863e-08
1.8089972e-11
1.3745145e-08
1.8218816e-11
1.3731564e-08
1.8347196e-11
1.3717887e-08
1.8475039e-11
1.3704115e-08
1.8602462e-11
1.3690249e-08
1.8729615e-11
1.3676288e-08
1.8856269e-11
1.3662232e-08
1.8982501e-11
1.3648083e-08
1.910848e-11
1.3633839e-08
1.9234049e-11
1.3619503e-08
1.9359229e-11
1.3605073e-08
1.9484012e-11
1.359055e-08
1.9608422e-11
1.3575935e-08
1.973235e-11
1.3561227e-08
1.9855824e-11
1.3546428e-08
1.9978859e-11
1.3531537e-08
2.0101422e-11
1.3516555e-08
2.0223238e-11
1.3501482e-08
2.0344609e-11
1.348632e-08
2.0465166e-11
1.3471068e-08
2.0585003e-11
1.3455727e-08
2.0704035e-11
1.3440297e-08
2.0822258e-11
1.342478e-08
2.0939521e-11
1.3409176e-08
2.1055927e-11
1.3393486e-08
2.1171044e-11
1.3377711e-08
2.1285031e-11
1.3361851e-08
2.1398077e-11
1.3345908e-08
2.1509703e-11
1.3329882e-08
2.162034e-11
1.3313774e-08
2.1729428e-11
1.3297585e-08
2.1837359e-11
1.3281317e-08
2.1943828e-11
1.3264969e-08
2.2048851e-11
1.3248545e-08
2.2152501e-11
1.3232043e-08
2.2254717e-11
1.3215467e-08
2.2355324e-11
1.3198815e-08
2.2454586e-11
1.3182091e-08
2.2552268e-11
1.3165294e-08
2.2648409e-11
1.3148426e-08
2.2743028e-11
1.3131489e-08
2.2836052e-11
1.3114482e-08
2.2927525e-11
1.3097409e-08
2.3017444e-11
1.3080268e-08
2.3105768e-11
1.3063063e-08
2.3192544e-11
1.3045794e-08
2.3277619e-11
1.3028462e-08
2.3361118e-11
1.3011068e-08
2.344304e-11
1.2993614e-08
2.3523325e-11
1.29761e-08
2.3602052e-11
1.2958529e-08
2.3679024e-11
1.2940901e-08
2.3754362e-11
1.2923217e-08
2.3828141e-11
1.2905479e-08
2.3900215e-11
1.2887688e-08
2.3970634e-11
1.2869845e-08
2.4039368e-11
1.2851951e-08
2.4106405e-11
1.2834008e-08
2.4171851e-11
1.2816018e-08
2.4235609e-11
1.279798e-08
2.4297731e-11
1.2779896e-08
2.4358195e-11
1.2761768e-08
2.4417045e-11
1.2743597e-08
2.4474256e-11
1.2725383e-08
2.4529865e-11
1.2707129e-08
2.4583961e-11
1.2688835e-08
2.4636552e-11
1.2670502e-08
2.4687714e-11
1.2652131e-08
2.4737276e-11
1.2633725e-08
2.478541e-11
1.2615282e-08
2.4832287e-11
1.2596806e-08
2.4877791e-11
1.2578295e-08
2.4922108e-11
1.2559752e-08
2.4965198e-11
1.2541177e-08
2.5007069e-11
1.2522572e-08
2.5047845e-11
1.2503936e-08
2.5087599e-11
1.248527e-08
2.5126411e-11
1.2466576e-08
2.5164342e-11
1.2447854e-08
2.5201393e-11
1.2429104e-08
2.5237732e-11
1.2410327e-08
2.5273428e-11
1.2391523e-08
2.530844e-11
1.2372694e-08
2.5342943e-11
1.2353839e-08
2.5376859e-11
1.2334958e-08
2.5410315e-11
1.2316052e-08
2.5443316e-11
1.2297122e-08
2.5476e-11
1.2278167e-08
2.5508386e-11
1.2259188e-08
2.5540433e-11
1.2240185e-08
2.5572201e-11
1.2221158e-08
2.5603967e-11
1.2202107e-08
2.5635393e-11
1.2183032e-08
2.5666817e-11
1.2163934e-08
2.569795e-11
1.2144813e-08
2.5729007e-11
1.2125668e-08
2.5760039e-11
1.21065e-08
2.5790861e-11
1.2087309e-08
2.5821749e-11
1.2068094e-08
2.5852617e-11
1.2048857e-08
2.5883483e-11
1.2029596e-08
2.5914234e-11
1.2010312e-08
2.5944762e-11
1.1991006e-08
2.5975369e-11
1.1971676e-08
2.6005923e-11
1.1952323e-08
2.6036543e-11
1.1932948e-08
2.6067073e-11
1.191355e-08
2.6097575e-11
1.1894128e-08
2.6128077e-11
1.1874684e-08
2.615854e-11
1.1855217e-08
2.6189057e-11
1.1835728e-08
2.6219522e-11
1.1816215e-08
2.6250235e-11
1.1796679e-08
2.6280917e-11
1.1777121e-08
2.6311622e-11
1.175754e-08
2.6342428e-11
1.1737935e-08
2.6373502e-11
1.1718307e-08
2.6404657e-11
1.1698656e-08
2.6436013e-11
1.1678981e-08
2.6467499e-11
1.1659283e-08
2.6499245e-11
1.163956e-08
2.6531387e-11
1.1619814e-08
2.6563805e-11
1.1600043e-08
2.6596616e-11
1.1580248e-08
2.6629948e-11
1.1560427e-08
2.6663582e-11
1.1540581e-08
2.6697739e-11
1.1520709e-08
2.6732453e-11
1.1500812e-08
2.6767803e-11
1.1480887e-08
2.6803629e-11
1.1460935e-08
2.6840179e-11
1.1440956e-08
2.687752e-11
1.1420948e-08
2.6915575e-11
1.1400912e-08
2.6954402e-11
1.1380846e-08
2.6994122e-11
1.1360751e-08
2.7034705e-11
1.1340624e-08
2.7076205e-11
1.1320466e-08
2.7118634e-11
1.1300277e-08
2.7161994e-11
1.1280054e-08
2.7206392e-11
1.1259797e-08
2.7251848e-11
1.1239507e-08
2.7298373e-11
1.1219181e-08
2.7346004e-11
1.1198819e-08
2.7394824e-11
1.117842e-08
2.7444786e-11
1.1157983e-08
2.7496052e-11
1.1137508e-08
2.754845e-11
1.1116993e-08
2.7601933e-11
1.1096438e-08
2.7656728e-11
1.1075841e-08
2.77128e-11
1.1055202e-08
2.7770099e-11
1.1034519e-08
2.7828779e-11
1.1013792e-08
2.7888681e-11
1.099302e-08
2.7949925e-11
1.0972202e-08
2.8012449e-11
1.0951336e-08
2.8076325e-11
1.0930422e-08
2.8141569e-11
1.0909459e-08
2.8208014e-11
1.0888446e-08
2.8275911e-11
1.0867382e-08
2.8345079e-11
1.0846266e-08
2.8415615e-11
1.0825096e-08
2.8487478e-11
1.0803872e-08
2.8560587e-11
1.0782594e-08
2.8635084e-11
1.0761259e-08
2.8710848e-11
1.0739867e-08
2.8788006e-11
1.0718417e-08
2.8866443e-11
1.0696909e-08
2.8946133e-11
1.067534e-08
2.9027139e-11
1.065371e-08
2.9109636e-11
1.0632018e-08
2.9193279e-11
1.0610264e-08
2.9278327e-11
1.0588445e-08
2.9364743e-11
1.0566561e-08
2.9452476e-11
1.0544612e-08
2.9541604e-11
1.0522595e-08
2.963202e-11
1.0500511e-08
2.9723801e-11
1.0478357e-08
2.9817109e-11
1.0456134e-08
2.9911629e-11
1.0433839e-08
3.0007637e-11
1.0411473e-08
3.0105067e-11
1.0389033e-08
3.0203934e-11
1.0366518e-08
3.0304249e-11
1.0343928e-08
3.0406045e-11
1.0321262e-08
3.0509546e-11
1.0298518e-08
3.0614327e-11
1.0275695e-08
3.0720927e-11
1.0252792e-08
3.0829065e-11
1.0229807e-08
3.0938887e-11
1.020674e-08
3.1050328e-11
1.0183589e-08
3.116356e-11
1.0160353e-08
3.1278373e-11
1.0137031e-08
3.1395128e-11
1.011362e-08
3.1513616e-11
1.0090121e-08
3.1634078e-11
1.0066531e-08
3.1756289e-11
1.0042848e-08
3.1880493e-11
1.0019072e-08
3.2006658e-11
9.9952014e-09
3.2134954e-11
9.9712339e-09
3.2265231e-11
9.9471682e-09
3.2397723e-11
9.9230027e-09