/*--------------------------------*- C++ -*----------------------------------*\
| =========                 |                                                 |
| \\      /  F ield         | OpenFOAM: The Open Source CFD Toolbox           |
|  \\    /   O peration     | Version:  2106                                  |
|   \\  /    A nd           | Website:  www.openfoam.com                      |
|    \\/     M anipulation  |                                                 |
\*---------------------------------------------------------------------------*/
FoamFile
{
    version     2.0;
    format      ascii;
    arch        "LSB;label=32;scalar=64";
    class       volScalarField;
    location    "16.5";
    object      T;
}
// * * * * * * * * * * * * * * * * * * * * * * * * * * * * * * * * * * * * * //

dimensions      [0 0 0 1 0 0 0];

internalField   nonuniform List<scalar> 
60000
(
299.00082
299.00247
299.00411
299.00575
299.00737
299.00897
299.01055
299.01211
299.01364
299.01515
299.01663
299.01808
299.01949
299.02087
299.02221
299.02352
299.02478
299.026
299.02719
299.02832
299.02942
299.03047
299.03147
299.03243
299.03334
299.03421
299.03503
299.0358
299.03653
299.03721
299.03785
299.03845
299.039
299.03952
299.03999
299.04043
299.04083
299.04119
299.04153
299.04183
299.04211
299.04237
299.0426
299.04282
299.04301
299.0432
299.04337
299.04354
299.04371
299.04387
299.04403
299.0442
299.04438
299.04457
299.04477
299.04499
299.04523
299.04548
299.04576
299.04607
299.0464
299.04677
299.04716
299.04759
299.04805
299.04854
299.04908
299.04965
299.05025
299.0509
299.05158
299.0523
299.05306
299.05386
299.0547
299.05558
299.05649
299.05744
299.05843
299.05945
299.06051
299.0616
299.06272
299.06388
299.06507
299.06628
299.06753
299.0688
299.0701
299.07142
299.07277
299.07414
299.07554
299.07695
299.07838
299.07984
299.0813
299.08279
299.08429
299.08581
299.08733
299.08888
299.09043
299.09199
299.09357
299.09515
299.09674
299.09834
299.09995
299.10156
299.10318
299.1048
299.10644
299.10807
299.10971
299.11135
299.113
299.11465
299.1163
299.11795
299.11961
299.12127
299.12293
299.12459
299.12626
299.12792
299.12958
299.13125
299.13292
299.13458
299.13625
299.13792
299.13959
299.14126
299.14293
299.1446
299.14627
299.14793
299.1496
299.15127
299.15294
299.15461
299.15628
299.15795
299.15962
299.16129
299.16296
299.16462
299.16629
299.16796
299.16963
299.1713
299.17297
299.17464
299.1763
299.17797
299.17964
299.18131
299.18298
299.18464
299.18631
299.18798
299.18965
299.19132
299.19298
299.19465
299.19632
299.19799
299.19966
299.20132
299.20299
299.20466
299.20633
299.208
299.20966
299.21133
299.213
299.21467
299.21634
299.21801
299.21967
299.22134
299.22301
299.22468
299.22635
299.22802
299.22969
299.23136
299.23302
299.23469
299.23636
299.23803
299.2397
299.24137
299.24304
299.24471
299.24638
299.24805
299.24972
299.25139
299.25306
299.25473
299.2564
299.25807
299.25974
299.26141
299.26308
299.26475
299.26642
299.2681
299.26977
299.27144
299.27311
299.27478
299.27645
299.27812
299.2798
299.28147
299.28314
299.28481
299.28648
299.28816
299.28983
299.2915
299.29317
299.29485
299.29652
299.29819
299.29987
299.30154
299.30321
299.30489
299.30656
299.30823
299.30991
299.31158
299.31326
299.31493
299.3166
299.31828
299.31995
299.32163
299.3233
299.32498
299.32666
299.32833
299.33001
299.33168
299.33336
299.33504
299.33671
299.33839
299.34007
299.34174
299.34342
299.3451
299.34678
299.34845
299.35013
299.35181
299.35349
299.35517
299.35685
299.35853
299.36021
299.36189
299.36357
299.36525
299.36693
299.36861
299.37029
299.37197
299.37365
299.37533
299.37701
299.3787
299.38038
299.38206
299.38374
299.38543
299.38711
299.3888
299.39048
299.39216
299.39385
299.39553
299.39722
299.39891
299.40059
299.40228
299.40397
299.40565
299.40734
299.40903
299.41072
299.41241
299.4141
299.41579
299.41749
299.41918
299.42087
299.42256
299.42425
299.42594
299.42763
299.42932
299.43101
299.4327
299.4344
299.43609
299.43778
299.43947
299.44117
299.44286
299.44456
299.44625
299.44795
299.44964
299.45134
299.45303
299.45473
299.45643
299.45813
299.45982
299.46152
299.46322
299.46492
299.46662
299.46832
299.47002
299.47172
299.47342
299.47512
299.47682
299.47853
299.48023
299.48193
299.48364
299.48534
299.48705
299.48875
299.49046
299.49216
299.49387
299.49557
299.49728
299.49899
299.5007
299.50241
299.50411
299.50582
299.50753
299.50924
299.51095
299.51266
299.51438
299.51609
299.5178
299.51951
299.52123
299.52294
299.52466
299.52637
299.52809
299.5298
299.53152
299.53324
299.53495
299.53667
299.53839
299.54011
299.54183
299.54355
299.54527
299.54699
299.54871
299.55043
299.55216
299.55388
299.5556
299.55733
299.55905
299.56078
299.56251
299.56423
299.56596
299.56769
299.56942
299.57115
299.57288
299.57461
299.57634
299.57807
299.5798
299.58154
299.58327
299.585
299.58674
299.58848
299.59021
299.59195
299.59369
299.59543
299.59716
299.5989
299.60064
299.60239
299.60413
299.60587
299.60761
299.60936
299.6111
299.61285
299.6146
299.61634
299.61809
299.61984
299.62159
299.62334
299.62509
299.62684
299.6286
299.63035
299.6321
299.63386
299.63561
299.63737
299.63913
299.64089
299.64265
299.64441
299.64617
299.64793
299.6497
299.65146
299.65322
299.65499
299.65676
299.65853
299.66029
299.66206
299.66383
299.66561
299.66738
299.66915
299.67093
299.6727
299.67448
299.67626
299.67804
299.67982
299.6816
299.68338
299.68517
299.68695
299.68874
299.69053
299.69232
299.69411
299.6959
299.69769
299.69948
299.70128
299.70307
299.70487
299.70667
299.70847
299.71027
299.71207
299.71388
299.71568
299.71749
299.7193
299.72111
299.72292
299.72473
299.72655
299.72836
299.73018
299.732
299.73382
299.73565
299.73747
299.7393
299.74112
299.74295
299.74478
299.74662
299.74845
299.75029
299.75213
299.75397
299.75581
299.75765
299.7595
299.76135
299.7632
299.76505
299.76691
299.76876
299.77062
299.77248
299.77435
299.77621
299.77808
299.77995
299.78182
299.7837
299.78558
299.78746
299.78934
299.79123
299.79311
299.79501
299.7969
299.7988
299.8007
299.8026
299.80451
299.80642
299.80833
299.81025
299.81217
299.81409
299.81602
299.81795
299.81989
299.82183
299.82378
299.82573
299.82768
299.82965
299.83161
299.83358
299.83556
299.83755
299.83954
299.84154
299.84354
299.84556
299.84758
299.84961
299.85165
299.8537
299.85576
299.85783
299.85992
299.86201
299.86412
299.86624
299.86838
299.87054
299.87271
299.87489
299.8771
299.87933
299.88158
299.88384
299.88614
299.88845
299.89079
299.89316
299.89556
299.89798
299.90043
299.90291
299.90543
299.90797
299.91055
299.91316
299.9158
299.91847
299.92118
299.92391
299.92668
299.92947
299.93229
299.93514
299.93801
299.9409
299.9438
299.94672
299.94965
299.95259
299.95554
299.95848
299.96143
299.96437
299.96729
299.97021
299.97312
299.97601
299.97889
299.98174
299.98459
299.98741
299.99023
299.99303
299.99582
299.99861
299.00083
299.0025
299.00416
299.00581
299.00745
299.00907
299.01066
299.01224
299.01379
299.01532
299.01681
299.01827
299.0197
299.0211
299.02245
299.02377
299.02505
299.02629
299.02748
299.02863
299.02974
299.0308
299.03181
299.03278
299.0337
299.03458
299.03541
299.03619
299.03692
299.03761
299.03825
299.03885
299.03941
299.03992
299.0404
299.04083
299.04123
299.0416
299.04193
299.04223
299.0425
299.04275
299.04298
299.04319
299.04338
299.04355
299.04372
299.04387
299.04403
299.04418
299.04433
299.04448
299.04465
299.04482
299.045
299.04521
299.04543
299.04567
299.04593
299.04622
299.04653
299.04688
299.04725
299.04766
299.0481
299.04858
299.04909
299.04965
299.05023
299.05086
299.05153
299.05223
299.05297
299.05376
299.05458
299.05544
299.05633
299.05727
299.05824
299.05925
299.06029
299.06137
299.06248
299.06362
299.0648
299.066
299.06723
299.0685
299.06978
299.0711
299.07244
299.0738
299.07519
299.07659
299.07802
299.07946
299.08092
299.0824
299.0839
299.08541
299.08693
299.08847
299.09002
299.09158
299.09315
299.09473
299.09631
299.09791
299.09952
299.10113
299.10274
299.10437
299.106
299.10763
299.10927
299.11091
299.11255
299.1142
299.11585
299.11751
299.11916
299.12082
299.12248
299.12414
299.12581
299.12747
299.12913
299.1308
299.13247
299.13413
299.1358
299.13747
299.13914
299.14081
299.14248
299.14414
299.14581
299.14748
299.14915
299.15082
299.15249
299.15416
299.15583
299.1575
299.15917
299.16084
299.16251
299.16417
299.16584
299.16751
299.16918
299.17085
299.17252
299.17419
299.17585
299.17752
299.17919
299.18086
299.18253
299.18419
299.18586
299.18753
299.1892
299.19087
299.19253
299.1942
299.19587
299.19754
299.19921
299.20087
299.20254
299.20421
299.20588
299.20755
299.20922
299.21088
299.21255
299.21422
299.21589
299.21756
299.21923
299.2209
299.22256
299.22423
299.2259
299.22757
299.22924
299.23091
299.23258
299.23425
299.23592
299.23759
299.23926
299.24092
299.24259
299.24426
299.24593
299.2476
299.24927
299.25094
299.25261
299.25428
299.25596
299.25763
299.2593
299.26097
299.26264
299.26431
299.26598
299.26765
299.26932
299.27099
299.27267
299.27434
299.27601
299.27768
299.27935
299.28102
299.2827
299.28437
299.28604
299.28771
299.28939
299.29106
299.29273
299.2944
299.29608
299.29775
299.29942
299.3011
299.30277
299.30445
299.30612
299.30779
299.30947
299.31114
299.31282
299.31449
299.31617
299.31784
299.31952
299.32119
299.32287
299.32454
299.32622
299.32789
299.32957
299.33125
299.33292
299.3346
299.33628
299.33795
299.33963
299.34131
299.34299
299.34466
299.34634
299.34802
299.3497
299.35138
299.35306
299.35474
299.35641
299.35809
299.35977
299.36145
299.36313
299.36482
299.3665
299.36818
299.36986
299.37154
299.37322
299.3749
299.37659
299.37827
299.37995
299.38163
299.38332
299.385
299.38669
299.38837
299.39005
299.39174
299.39342
299.39511
299.3968
299.39848
299.40017
299.40186
299.40354
299.40523
299.40692
299.40861
299.4103
299.41199
299.41368
299.41537
299.41706
299.41876
299.42045
299.42214
299.42383
299.42552
299.42721
299.4289
299.4306
299.43229
299.43398
299.43567
299.43737
299.43906
299.44075
299.44245
299.44414
299.44584
299.44753
299.44923
299.45093
299.45262
299.45432
299.45602
299.45772
299.45941
299.46111
299.46281
299.46451
299.46621
299.46791
299.46961
299.47131
299.47302
299.47472
299.47642
299.47812
299.47983
299.48153
299.48323
299.48494
299.48664
299.48835
299.49005
299.49176
299.49347
299.49517
299.49688
299.49859
299.5003
299.50201
299.50372
299.50543
299.50714
299.50885
299.51056
299.51227
299.51398
299.51569
299.51741
299.51912
299.52084
299.52255
299.52426
299.52598
299.5277
299.52941
299.53113
299.53285
299.53457
299.53628
299.538
299.53972
299.54144
299.54316
299.54488
299.54661
299.54833
299.55005
299.55177
299.5535
299.55522
299.55695
299.55867
299.5604
299.56213
299.56385
299.56558
299.56731
299.56904
299.57077
299.5725
299.57423
299.57596
299.5777
299.57943
299.58116
299.5829
299.58463
299.58637
299.5881
299.58984
299.59158
299.59332
299.59506
299.5968
299.59854
299.60028
299.60202
299.60376
299.6055
299.60725
299.60899
299.61074
299.61248
299.61423
299.61598
299.61773
299.61948
299.62123
299.62298
299.62473
299.62648
299.62824
299.62999
299.63175
299.6335
299.63526
299.63702
299.63877
299.64053
299.64229
299.64405
299.64582
299.64758
299.64934
299.65111
299.65287
299.65464
299.65641
299.65818
299.65995
299.66172
299.66349
299.66526
299.66703
299.66881
299.67058
299.67236
299.67414
299.67592
299.6777
299.67948
299.68126
299.68304
299.68483
299.68661
299.6884
299.69019
299.69198
299.69377
299.69556
299.69735
299.69915
299.70094
299.70274
299.70454
299.70634
299.70814
299.70994
299.71174
299.71355
299.71535
299.71716
299.71897
299.72078
299.72259
299.72441
299.72622
299.72804
299.72986
299.73168
299.7335
299.73532
299.73715
299.73897
299.7408
299.74263
299.74446
299.7463
299.74813
299.74997
299.75181
299.75365
299.75549
299.75734
299.75919
299.76104
299.76289
299.76474
299.7666
299.76845
299.77031
299.77217
299.77404
299.7759
299.77777
299.77964
299.78152
299.78339
299.78527
299.78715
299.78904
299.79092
299.79281
299.79471
299.7966
299.7985
299.8004
299.8023
299.80421
299.80612
299.80804
299.80995
299.81188
299.8138
299.81573
299.81766
299.8196
299.82154
299.82349
299.82544
299.8274
299.82936
299.83132
299.8333
299.83528
299.83726
299.83925
299.84125
299.84326
299.84527
299.8473
299.84933
299.85137
299.85342
299.85548
299.85755
299.85964
299.86173
299.86384
299.86597
299.8681
299.87026
299.87243
299.87462
299.87683
299.87905
299.8813
299.88357
299.88587
299.88818
299.89053
299.89289
299.89529
299.89772
299.90017
299.90266
299.90517
299.90772
299.9103
299.91291
299.91556
299.91824
299.92095
299.92369
299.92646
299.92926
299.93209
299.93494
299.93782
299.94072
299.94363
299.94656
299.9495
299.95245
299.95541
299.95836
299.96132
299.96427
299.96721
299.97014
299.97305
299.97595
299.97883
299.9817
299.98455
299.98739
299.99021
299.99301
299.99581
299.9986
299.00085
299.00255
299.00425
299.00594
299.00761
299.00926
299.0109
299.01251
299.0141
299.01565
299.01718
299.01868
299.02014
299.02156
299.02295
299.0243
299.02561
299.02687
299.0281
299.02927
299.0304
299.03149
299.03253
299.03351
299.03445
299.03535
299.03619
299.03698
299.03773
299.03843
299.03908
299.03968
299.04024
299.04076
299.04124
299.04167
299.04207
299.04242
299.04275
299.04304
299.0433
299.04354
299.04375
299.04394
299.04412
299.04427
299.04442
299.04455
299.04468
299.04481
299.04493
299.04506
299.04519
299.04534
299.04549
299.04566
299.04585
299.04606
299.04629
299.04654
299.04682
299.04713
299.04747
299.04785
299.04825
299.04869
299.04917
299.04969
299.05024
299.05083
299.05146
299.05214
299.05285
299.05359
299.05438
299.05521
299.05608
299.05698
299.05793
299.05891
299.05992
299.06097
299.06206
299.06318
299.06433
299.06551
299.06673
299.06797
299.06924
299.07053
299.07185
299.0732
299.07457
299.07596
299.07737
299.0788
299.08025
299.08172
299.0832
299.0847
299.08622
299.08775
299.08929
299.09084
299.0924
299.09398
299.09556
299.09715
299.09875
299.10036
299.10197
299.10359
299.10522
299.10685
299.10848
299.11012
299.11176
299.11341
299.11506
299.11671
299.11837
299.12002
299.12168
299.12334
299.12501
299.12667
299.12833
299.13
299.13166
299.13333
299.135
299.13667
299.13834
299.14
299.14167
299.14334
299.14501
299.14668
299.14835
299.15002
299.15169
299.15336
299.15503
299.1567
299.15837
299.16004
299.1617
299.16337
299.16504
299.16671
299.16838
299.17005
299.17172
299.17339
299.17505
299.17672
299.17839
299.18006
299.18173
299.1834
299.18506
299.18673
299.1884
299.19007
299.19174
299.1934
299.19507
299.19674
299.19841
299.20008
299.20174
299.20341
299.20508
299.20675
299.20842
299.21009
299.21175
299.21342
299.21509
299.21676
299.21843
299.2201
299.22177
299.22344
299.2251
299.22677
299.22844
299.23011
299.23178
299.23345
299.23512
299.23679
299.23846
299.24013
299.2418
299.24347
299.24514
299.24681
299.24848
299.25015
299.25182
299.25349
299.25516
299.25683
299.2585
299.26017
299.26185
299.26352
299.26519
299.26686
299.26853
299.2702
299.27187
299.27355
299.27522
299.27689
299.27856
299.28023
299.28191
299.28358
299.28525
299.28693
299.2886
299.29027
299.29194
299.29362
299.29529
299.29697
299.29864
299.30031
299.30199
299.30366
299.30534
299.30701
299.30868
299.31036
299.31203
299.31371
299.31538
299.31706
299.31874
299.32041
299.32209
299.32376
299.32544
299.32712
299.32879
299.33047
299.33215
299.33382
299.3355
299.33718
299.33886
299.34053
299.34221
299.34389
299.34557
299.34725
299.34893
299.35061
299.35228
299.35396
299.35564
299.35732
299.359
299.36069
299.36237
299.36405
299.36573
299.36741
299.36909
299.37077
299.37246
299.37414
299.37582
299.3775
299.37919
299.38087
299.38256
299.38424
299.38592
299.38761
299.38929
299.39098
299.39267
299.39435
299.39604
299.39772
299.39941
299.4011
299.40279
299.40448
299.40617
299.40786
299.40955
299.41124
299.41293
299.41462
299.41631
299.41801
299.4197
299.42139
299.42308
299.42477
299.42647
299.42816
299.42985
299.43154
299.43324
299.43493
299.43662
299.43832
299.44001
299.44171
299.4434
299.4451
299.4468
299.44849
299.45019
299.45189
299.45359
299.45528
299.45698
299.45868
299.46038
299.46208
299.46378
299.46548
299.46718
299.46889
299.47059
299.47229
299.47399
299.4757
299.4774
299.4791
299.48081
299.48251
299.48422
299.48592
299.48763
299.48934
299.49104
299.49275
299.49446
299.49617
299.49788
299.49959
299.5013
299.50301
299.50472
299.50643
299.50814
299.50985
299.51156
299.51328
299.51499
299.5167
299.51842
299.52013
299.52185
299.52356
299.52528
299.527
299.52872
299.53043
299.53215
299.53387
299.53559
299.53731
299.53903
299.54075
299.54247
299.5442
299.54592
299.54764
299.54936
299.55109
299.55281
299.55454
299.55627
299.55799
299.55972
299.56145
299.56318
299.5649
299.56663
299.56836
299.5701
299.57183
299.57356
299.57529
299.57702
299.57876
299.58049
299.58223
299.58396
299.5857
299.58744
299.58918
299.59091
299.59265
299.59439
299.59613
299.59788
299.59962
299.60136
299.6031
299.60485
299.60659
299.60834
299.61009
299.61183
299.61358
299.61533
299.61708
299.61883
299.62058
299.62233
299.62409
299.62584
299.62759
299.62935
299.6311
299.63286
299.63462
299.63638
299.63814
299.6399
299.64166
299.64342
299.64518
299.64695
299.64871
299.65048
299.65224
299.65401
299.65578
299.65755
299.65932
299.66109
299.66286
299.66464
299.66641
299.66819
299.66997
299.67174
299.67352
299.6753
299.67708
299.67886
299.68065
299.68243
299.68422
299.686
299.68779
299.68958
299.69137
299.69316
299.69496
299.69675
299.69855
299.70034
299.70214
299.70394
299.70574
299.70754
299.70934
299.71115
299.71295
299.71476
299.71657
299.71838
299.72019
299.72201
299.72382
299.72564
299.72746
299.72928
299.7311
299.73292
299.73474
299.73657
299.7384
299.74023
299.74206
299.74389
299.74573
299.74756
299.7494
299.75124
299.75308
299.75493
299.75677
299.75862
299.76047
299.76233
299.76418
299.76604
299.76789
299.76976
299.77162
299.77348
299.77535
299.77722
299.77909
299.78097
299.78285
299.78473
299.78661
299.78849
299.79038
299.79227
299.79417
299.79606
299.79796
299.79986
299.80177
299.80368
299.80559
299.8075
299.80942
299.81135
299.81327
299.8152
299.81714
299.81908
299.82102
299.82297
299.82492
299.82688
299.82884
299.83081
299.83278
299.83476
299.83675
299.83874
299.84074
299.84275
299.84476
299.84679
299.84882
299.85086
299.85291
299.85497
299.85705
299.85913
299.86123
299.86334
299.86546
299.8676
299.86976
299.87193
299.87412
299.87633
299.87856
299.88081
299.88308
299.88537
299.88769
299.89004
299.89241
299.89481
299.89724
299.8997
299.90219
299.90471
299.90726
299.90985
299.91247
299.91512
299.91781
299.92053
299.92328
299.92606
299.92887
299.93171
299.93458
299.93747
299.94039
299.94332
299.94627
299.94923
299.95219
299.95517
299.95814
299.96112
299.96408
299.96704
299.96999
299.97292
299.97584
299.97874
299.98162
299.98449
299.98733
299.99017
299.99299
299.9958
299.9986
299.00088
299.00264
299.00439
299.00613
299.00786
299.00956
299.01125
299.01292
299.01456
299.01617
299.01775
299.0193
299.02081
299.02229
299.02373
299.02512
299.02648
299.02779
299.02905
299.03027
299.03144
299.03256
299.03363
299.03465
299.03562
299.03654
299.03741
299.03822
299.03898
299.0397
299.04036
299.04097
299.04154
299.04206
299.04253
299.04296
299.04335
299.0437
299.04401
299.04429
299.04454
299.04475
299.04494
299.04511
299.04526
299.04538
299.0455
299.0456
299.04569
299.04578
299.04587
299.04595
299.04605
299.04615
299.04626
299.04638
299.04652
299.04668
299.04686
299.04707
299.0473
299.04756
299.04785
299.04818
299.04853
299.04892
299.04935
299.04982
299.05032
299.05087
299.05145
299.05207
299.05274
299.05344
299.05418
299.05497
299.05579
299.05666
299.05756
299.0585
299.05948
299.06049
299.06154
299.06263
299.06375
299.0649
299.06608
299.06729
299.06853
299.0698
299.0711
299.07242
299.07377
299.07514
299.07653
299.07795
299.07938
299.08083
299.0823
299.08379
299.08529
299.0868
299.08833
299.08987
299.09143
299.09299
299.09457
299.09615
299.09774
299.09934
299.10095
299.10257
299.10419
299.10581
299.10745
299.10908
299.11072
299.11237
299.11401
299.11566
299.11732
299.11897
299.12063
299.12229
299.12395
299.12561
299.12728
299.12894
299.13061
299.13227
299.13394
299.13561
299.13728
299.13895
299.14061
299.14228
299.14395
299.14562
299.14729
299.14896
299.15063
299.1523
299.15397
299.15564
299.15731
299.15898
299.16065
299.16232
299.16399
299.16565
299.16732
299.16899
299.17066
299.17233
299.174
299.17567
299.17734
299.179
299.18067
299.18234
299.18401
299.18568
299.18735
299.18901
299.19068
299.19235
299.19402
299.19569
299.19735
299.19902
299.20069
299.20236
299.20403
299.2057
299.20737
299.20903
299.2107
299.21237
299.21404
299.21571
299.21738
299.21905
299.22072
299.22238
299.22405
299.22572
299.22739
299.22906
299.23073
299.2324
299.23407
299.23574
299.23741
299.23908
299.24075
299.24242
299.24409
299.24576
299.24743
299.2491
299.25077
299.25244
299.25411
299.25579
299.25746
299.25913
299.2608
299.26247
299.26414
299.26581
299.26749
299.26916
299.27083
299.2725
299.27417
299.27585
299.27752
299.27919
299.28086
299.28254
299.28421
299.28588
299.28756
299.28923
299.2909
299.29258
299.29425
299.29593
299.2976
299.29927
299.30095
299.30262
299.3043
299.30597
299.30765
299.30932
299.311
299.31268
299.31435
299.31603
299.3177
299.31938
299.32106
299.32273
299.32441
299.32609
299.32776
299.32944
299.33112
299.3328
299.33447
299.33615
299.33783
299.33951
299.34119
299.34287
299.34454
299.34622
299.3479
299.34958
299.35126
299.35294
299.35462
299.3563
299.35799
299.35967
299.36135
299.36303
299.36471
299.36639
299.36808
299.36976
299.37144
299.37313
299.37481
299.37649
299.37818
299.37986
299.38155
299.38323
299.38492
299.3866
299.38829
299.38997
299.39166
299.39335
299.39503
299.39672
299.39841
299.4001
299.40179
299.40348
299.40517
299.40686
299.40855
299.41024
299.41193
299.41363
299.41532
299.41702
299.41871
299.4204
299.42209
299.42378
299.42548
299.42717
299.42886
299.43056
299.43225
299.43395
299.43564
299.43734
299.43903
299.44073
299.44243
299.44412
299.44582
299.44752
299.44922
299.45091
299.45261
299.45431
299.45601
299.45771
299.45941
299.46111
299.46281
299.46452
299.46622
299.46792
299.46962
299.47133
299.47303
299.47474
299.47644
299.47815
299.47985
299.48156
299.48326
299.48497
299.48668
299.48839
299.49009
299.4918
299.49351
299.49522
299.49693
299.49864
299.50035
299.50206
299.50378
299.50549
299.5072
299.50891
299.51063
299.51234
299.51406
299.51577
299.51749
299.5192
299.52092
299.52264
299.52435
299.52607
299.52779
299.52951
299.53123
299.53295
299.53467
299.53639
299.53811
299.53983
299.54156
299.54328
299.545
299.54673
299.54845
299.55018
299.55191
299.55363
299.55536
299.55709
299.55882
299.56054
299.56227
299.564
299.56574
299.56747
299.5692
299.57093
299.57266
299.5744
299.57613
299.57787
299.5796
299.58134
299.58308
299.58482
299.58655
299.58829
299.59003
299.59177
299.59352
299.59526
299.597
299.59874
299.60049
299.60223
299.60398
299.60572
299.60747
299.60922
299.61097
299.61272
299.61447
299.61622
299.61797
299.61972
299.62147
299.62323
299.62498
299.62674
299.6285
299.63025
299.63201
299.63377
299.63553
299.63729
299.63905
299.64081
299.64258
299.64434
299.64611
299.64787
299.64964
299.65141
299.65318
299.65495
299.65672
299.65849
299.66026
299.66204
299.66381
299.66559
299.66736
299.66914
299.67092
299.6727
299.67448
299.67627
299.67805
299.67983
299.68162
299.68341
299.68519
299.68698
299.68877
299.69057
299.69236
299.69415
299.69595
299.69774
299.69954
299.70134
299.70314
299.70494
299.70675
299.70855
299.71036
299.71217
299.71397
299.71578
299.7176
299.71941
299.72122
299.72304
299.72486
299.72668
299.7285
299.73032
299.73215
299.73397
299.7358
299.73763
299.73946
299.74129
299.74313
299.74496
299.7468
299.74864
299.75048
299.75233
299.75417
299.75602
299.75787
299.75972
299.76158
299.76343
299.76529
299.76715
299.76901
299.77088
299.77274
299.77461
299.77649
299.77836
299.78024
299.78211
299.784
299.78588
299.78777
299.78966
299.79155
299.79344
299.79534
299.79724
299.79914
299.80105
299.80296
299.80488
299.80679
299.80871
299.81064
299.81256
299.8145
299.81643
299.81837
299.82032
299.82227
299.82422
299.82618
299.82814
299.83011
299.83209
299.83407
299.83606
299.83805
299.84005
299.84206
299.84408
299.8461
299.84813
299.85018
299.85223
299.85429
299.85637
299.85845
299.86055
299.86266
299.86479
299.86693
299.86908
299.87126
299.87345
299.87566
299.87789
299.88014
299.88241
299.88471
299.88703
299.88938
299.89176
299.89416
299.89659
299.89906
299.90155
299.90408
299.90664
299.90923
299.91186
299.91452
299.91722
299.91995
299.92272
299.92551
299.92834
299.9312
299.93409
299.937
299.93993
299.94289
299.94586
299.94884
299.95183
299.95483
299.95783
299.96083
299.96382
299.96681
299.96978
299.97274
299.97568
299.9786
299.9815
299.98439
299.98726
299.99011
299.99294
299.99577
299.99859
299.00092
299.00275
299.00457
299.00639
299.00819
299.00997
299.01174
299.01348
299.01519
299.01688
299.01853
299.02015
299.02174
299.02328
299.02479
299.02625
299.02767
299.02905
299.03037
299.03165
299.03287
299.03404
299.03516
299.03622
299.03723
299.03818
299.03908
299.03992
299.04071
299.04144
299.04212
299.04274
299.04332
299.04384
299.04431
299.04473
299.04511
299.04545
299.04575
299.046
299.04622
299.04641
299.04657
299.0467
299.04681
299.0469
299.04697
299.04703
299.04707
299.04711
299.04715
299.04719
299.04722
299.04727
299.04732
299.04739
299.04747
299.04757
299.04769
299.04783
299.048
299.0482
299.04843
299.04869
299.04898
299.04931
299.04967
299.05008
299.05052
299.051
299.05153
299.05209
299.0527
299.05334
299.05403
299.05476
299.05553
299.05634
299.0572
299.05809
299.05902
299.05999
299.06099
299.06204
299.06311
299.06423
299.06537
299.06655
299.06776
299.06899
299.07026
299.07155
299.07287
299.07422
299.07558
299.07698
299.07839
299.07982
299.08127
299.08274
299.08422
299.08572
299.08724
299.08877
299.09031
299.09186
299.09343
299.095
299.09658
299.09818
299.09978
299.10139
299.103
299.10462
299.10625
299.10788
299.10952
299.11116
299.1128
299.11445
299.1161
299.11776
299.11941
299.12107
299.12273
299.12439
299.12605
299.12772
299.12938
299.13105
299.13272
299.13438
299.13605
299.13772
299.13939
299.14106
299.14273
299.1444
299.14607
299.14774
299.14941
299.15108
299.15275
299.15442
299.15609
299.15776
299.15942
299.16109
299.16276
299.16443
299.1661
299.16777
299.16944
299.17111
299.17278
299.17445
299.17611
299.17778
299.17945
299.18112
299.18279
299.18446
299.18613
299.18779
299.18946
299.19113
299.1928
299.19447
299.19614
299.1978
299.19947
299.20114
299.20281
299.20448
299.20615
299.20782
299.20948
299.21115
299.21282
299.21449
299.21616
299.21783
299.2195
299.22117
299.22284
299.22451
299.22618
299.22784
299.22951
299.23118
299.23285
299.23452
299.23619
299.23786
299.23953
299.24121
299.24288
299.24455
299.24622
299.24789
299.24956
299.25123
299.2529
299.25457
299.25624
299.25792
299.25959
299.26126
299.26293
299.2646
299.26628
299.26795
299.26962
299.27129
299.27296
299.27464
299.27631
299.27798
299.27966
299.28133
299.283
299.28468
299.28635
299.28803
299.2897
299.29137
299.29305
299.29472
299.2964
299.29807
299.29975
299.30142
299.3031
299.30477
299.30645
299.30812
299.3098
299.31148
299.31315
299.31483
299.31651
299.31818
299.31986
299.32154
299.32321
299.32489
299.32657
299.32825
299.32993
299.3316
299.33328
299.33496
299.33664
299.33832
299.34
299.34168
299.34336
299.34504
299.34672
299.3484
299.35008
299.35176
299.35344
299.35512
299.3568
299.35849
299.36017
299.36185
299.36353
299.36522
299.3669
299.36858
299.37027
299.37195
299.37363
299.37532
299.377
299.37869
299.38037
299.38206
299.38375
299.38543
299.38712
299.38881
299.39049
299.39218
299.39387
299.39556
299.39725
299.39894
299.40063
299.40232
299.40401
299.4057
299.40739
299.40908
299.41077
299.41247
299.41416
299.41586
299.41756
299.41925
299.42094
299.42263
299.42433
299.42602
299.42772
299.42941
299.43111
299.4328
299.4345
299.43619
299.43789
299.43959
299.44129
299.44298
299.44468
299.44638
299.44808
299.44978
299.45148
299.45318
299.45488
299.45658
299.45828
299.45999
299.46169
299.46339
299.4651
299.4668
299.4685
299.47021
299.47191
299.47362
299.47532
299.47703
299.47874
299.48045
299.48215
299.48386
299.48557
299.48728
299.48899
299.4907
299.49241
299.49412
299.49583
299.49754
299.49925
299.50097
299.50268
299.50439
299.50611
299.50782
299.50954
299.51125
299.51297
299.51468
299.5164
299.51812
299.51984
299.52155
299.52327
299.52499
299.52671
299.52843
299.53015
299.53188
299.5336
299.53532
299.53704
299.53877
299.54049
299.54222
299.54394
299.54567
299.54739
299.54912
299.55085
299.55258
299.5543
299.55603
299.55776
299.55949
299.56122
299.56296
299.56469
299.56642
299.56815
299.56989
299.57162
299.57336
299.57509
299.57683
299.57857
299.58031
299.58204
299.58378
299.58552
299.58726
299.58901
299.59075
299.59249
299.59423
299.59598
299.59772
299.59947
299.60121
299.60296
299.60471
299.60646
299.60821
299.60996
299.61171
299.61346
299.61521
299.61696
299.61872
299.62047
299.62223
299.62398
299.62574
299.6275
299.62926
299.63102
299.63278
299.63454
299.6363
299.63807
299.63983
299.64159
299.64336
299.64513
299.64689
299.64866
299.65043
299.6522
299.65397
299.65575
299.65752
299.65929
299.66107
299.66285
299.66462
299.6664
299.66818
299.66996
299.67174
299.67353
299.67531
299.6771
299.67888
299.68067
299.68246
299.68425
299.68604
299.68783
299.68962
299.69142
299.69321
299.69501
299.69681
299.69861
299.70041
299.70221
299.70401
299.70582
299.70763
299.70943
299.71124
299.71305
299.71486
299.71668
299.71849
299.72031
299.72213
299.72395
299.72577
299.72759
299.72941
299.73124
299.73307
299.7349
299.73673
299.73856
299.74039
299.74223
299.74407
299.74591
299.74775
299.74959
299.75144
299.75329
299.75514
299.75699
299.75884
299.7607
299.76255
299.76441
299.76628
299.76814
299.77001
299.77188
299.77375
299.77562
299.7775
299.77937
299.78125
299.78314
299.78502
299.78691
299.7888
299.7907
299.79259
299.79449
299.79639
299.7983
299.80021
299.80212
299.80404
299.80595
299.80788
299.8098
299.81173
299.81366
299.8156
299.81754
299.81949
299.82144
299.8234
299.82536
299.82732
299.82929
299.83127
299.83325
299.83524
299.83723
299.83924
299.84125
299.84326
299.84529
299.84732
299.84937
299.85142