/*--------------------------------*- C++ -*----------------------------------*\
| =========                 |                                                 |
| \\      /  F ield         | OpenFOAM: The Open Source CFD Toolbox           |
|  \\    /   O peration     | Version:  2106                                  |
|   \\  /    A nd           | Website:  www.openfoam.com                      |
|    \\/     M anipulation  |                                                 |
\*---------------------------------------------------------------------------*/
FoamFile
{
    version     2.0;
    format      ascii;
    arch        "LSB;label=32;scalar=64";
    class       volVectorField;
    location    "16.5";
    object      U;
}
// * * * * * * * * * * * * * * * * * * * * * * * * * * * * * * * * * * * * * //

dimensions      [0 1 -1 0 0 0 0];

internalField   nonuniform List<vector> 
60000
(
(-5.7413058e-07 5.7436171e-07 0)
(-2.5420015e-06 6.44265e-07 0)
(-3.8616818e-06 4.5799805e-07 0)
(-3.7510729e-06 1.7698051e-07 0)
(-1.7642904e-06 -1.1878175e-07 0)
(2.2174608e-06 -3.9051146e-07 0)
(8.1576004e-06 -6.5191166e-07 0)
(1.5930212e-05 -8.8724714e-07 0)
(2.5416316e-05 -1.0939984e-06 0)
(3.6474132e-05 -1.2763786e-06 0)
(4.8960088e-05 -1.4373331e-06 0)
(6.273555e-05 -1.5791255e-06 0)
(7.7668338e-05 -1.7036937e-06 0)
(9.3633094e-05 -1.8126861e-06 0)
(0.00011051109 -1.9074475e-06 0)
(0.00012818972 -1.9890661e-06 0)
(0.00014656187 -2.0584464e-06 0)
(0.00016552513 -2.1162874e-06 0)
(0.00018498127 -2.163169e-06 0)
(0.00020483554 -2.1995422e-06 0)
(0.00022499622 -2.2257797e-06 0)
(0.00024537425 -2.242192e-06 0)
(0.00026588289 -2.2490256e-06 0)
(0.00028643762 -2.246525e-06 0)
(0.00030695603 -2.2349135e-06 0)
(0.00032735794 -2.2144423e-06 0)
(0.00034756549 -2.1853503e-06 0)
(0.00036750344 -2.1479446e-06 0)
(0.00038709946 -2.1025684e-06 0)
(0.00040628451 -2.0496156e-06 0)
(0.00042499327 -1.9895321e-06 0)
(0.00044316458 -1.9228306e-06 0)
(0.00046074188 -1.8500721e-06 0)
(0.00047767364 -1.7718813e-06 0)
(0.00049391378 -1.6889097e-06 0)
(0.00050942198 -1.6018828e-06 0)
(0.00052416392 -1.5115329e-06 0)
(0.00053811161 -1.4186045e-06 0)
(0.00055124337 -1.3238744e-06 0)
(0.00056354393 -1.2280932e-06 0)
(0.00057500436 -1.1320045e-06 0)
(0.00058562191 -1.036327e-06 0)
(0.00059539976 -9.4174414e-07 0)
(0.00060434676 -8.4888311e-07 0)
(0.00061247702 -7.5833392e-07 0)
(0.00061980951 -6.7061856e-07 0)
(0.00062636751 -5.8619403e-07 0)
(0.0006321782 -5.0544645e-07 0)
(0.00063727208 -4.2871577e-07 0)
(0.00064168244 -3.5625319e-07 0)
(0.00064544484 -2.8825143e-07 0)
(0.00064859657 -2.2484715e-07 0)
(0.00065117618 -1.6612383e-07 0)
(0.00065322299 -1.120906e-07 0)
(0.00065477663 -6.2714708e-08 0)
(0.00065587669 -1.7899073e-08 0)
(0.00065656251 2.2494623e-08 0)
(0.00065687292 5.8177338e-08 0)
(0.00065684343 8.8738032e-08 0)
(0.00065651108 1.1661608e-07 0)
(0.00065591163 1.4083956e-07 0)
(0.00065507734 1.612855e-07 0)
(0.0006540393 1.7832307e-07 0)
(0.00065282701 1.9222401e-07 0)
(0.00065146807 2.0324708e-07 0)
(0.00064998814 2.1162916e-07 0)
(0.00064841096 2.1759652e-07 0)
(0.00064675831 2.2137856e-07 0)
(0.00064505011 2.2319911e-07 0)
(0.00064330447 2.2327426e-07 0)
(0.0006415377 2.2177787e-07 0)
(0.00063976441 2.1893083e-07 0)
(0.00063799757 2.1489316e-07 0)
(0.00063624862 2.0984403e-07 0)
(0.00063452754 2.0393285e-07 0)
(0.00063284295 1.9731036e-07 0)
(0.00063120217 1.9010369e-07 0)
(0.00062961135 1.8243305e-07 0)
(0.00062807556 1.7441752e-07 0)
(0.00062659886 1.6615095e-07 0)
(0.00062518436 1.5772764e-07 0)
(0.00062383439 1.4923285e-07 0)
(0.00062255049 1.407286e-07 0)
(0.00062133354 1.3229119e-07 0)
(0.00062018382 1.2396541e-07 0)
(0.00061910108 1.1580211e-07 0)
(0.00061808459 1.0784224e-07 0)
(0.00061713323 1.0012601e-07 0)
(0.00061624552 9.2675732e-08 0)
(0.00061541968 8.5513624e-08 0)
(0.00061465369 7.8665839e-08 0)
(0.00061394533 7.2134628e-08 0)
(0.00061329222 6.5938865e-08 0)
(0.00061269182 6.008701e-08 0)
(0.00061214153 5.457366e-08 0)
(0.00061163869 4.9405207e-08 0)
(0.00061118059 4.457734e-08 0)
(0.00061076451 4.0085802e-08 0)
(0.00061038776 3.5924447e-08 0)
(0.00061004766 3.207747e-08 0)
(0.00060974157 2.8549189e-08 0)
(0.00060946694 2.531673e-08 0)
(0.00060922127 2.2372062e-08 0)
(0.00060900214 1.9704629e-08 0)
(0.00060880721 1.7296242e-08 0)
(0.00060863427 1.514218e-08 0)
(0.0006084812 1.3218777e-08 0)
(0.00060834595 1.15217e-08 0)
(0.00060822662 1.0029671e-08 0)
(0.0006081214 8.7356165e-09 0)
(0.00060802858 7.6177601e-09 0)
(0.00060794658 6.6702367e-09 0)
(0.00060787393 5.8784909e-09 0)
(0.00060780922 5.2251471e-09 0)
(0.00060775118 4.7102488e-09 0)
(0.00060769864 4.3118456e-09 0)
(0.0006076505 4.0163208e-09 0)
(0.00060760576 3.8264091e-09 0)
(0.00060756352 3.7217721e-09 0)
(0.00060752295 3.7030893e-09 0)
(0.0006074833 3.7472057e-09 0)
(0.00060744391 3.8645424e-09 0)
(0.00060740414 4.0339353e-09 0)
(0.00060736346 4.2587575e-09 0)
(0.00060732139 4.5181273e-09 0)
(0.0006072775 4.8266023e-09 0)
(0.0006072314 5.1650683e-09 0)
(0.00060718274 5.5272197e-09 0)
(0.00060713125 5.9179737e-09 0)
(0.00060707667 6.3277739e-09 0)
(0.00060701878 6.7546192e-09 0)
(0.00060695737 7.1994633e-09 0)
(0.0006068923 7.6569071e-09 0)
(0.00060682342 8.1258246e-09 0)
(0.00060675062 8.596894e-09 0)
(0.0006066738 9.0824408e-09 0)
(0.00060659287 9.5773259e-09 0)
(0.00060650777 1.0064952e-08 0)
(0.00060641846 1.0559619e-08 0)
(0.00060632488 1.1051891e-08 0)
(0.00060622698 1.155581e-08 0)
(0.00060612475 1.2052056e-08 0)
(0.00060601815 1.2549631e-08 0)
(0.00060590718 1.3042196e-08 0)
(0.00060579181 1.354334e-08 0)
(0.00060567203 1.4040606e-08 0)
(0.00060554782 1.4541757e-08 0)
(0.00060541917 1.5038951e-08 0)
(0.00060528608 1.5539823e-08 0)
(0.00060514852 1.6033566e-08 0)
(0.00060500648 1.6536362e-08 0)
(0.00060485994 1.7033905e-08 0)
(0.0006047089 1.7527033e-08 0)
(0.00060455334 1.8030048e-08 0)
(0.00060439322 1.8528231e-08 0)
(0.00060422854 1.9040194e-08 0)
(0.00060405927 1.9544171e-08 0)
(0.00060388539 2.0045792e-08 0)
(0.00060370686 2.0552046e-08 0)
(0.00060352367 2.1063853e-08 0)
(0.00060333578 2.1576966e-08 0)
(0.00060314317 2.2086887e-08 0)
(0.0006029458 2.260321e-08 0)
(0.00060274363 2.3120314e-08 0)
(0.00060253665 2.3645795e-08 0)
(0.00060232481 2.4162824e-08 0)
(0.00060210808 2.4694385e-08 0)
(0.00060188643 2.521896e-08 0)
(0.00060165984 2.5749022e-08 0)
(0.00060142825 2.6282947e-08 0)
(0.00060119165 2.6820738e-08 0)
(0.00060095001 2.7361355e-08 0)
(0.0006007033 2.790318e-08 0)
(0.00060045148 2.8444628e-08 0)
(0.00060019454 2.8990389e-08 0)
(0.00059993244 2.9527891e-08 0)
(0.00059966518 3.0078473e-08 0)
(0.00059939275 3.0623446e-08 0)
(0.00059911511 3.1170228e-08 0)
(0.00059883228 3.1718216e-08 0)
(0.00059854423 3.2262849e-08 0)
(0.00059825097 3.2808587e-08 0)
(0.00059795248 3.3355588e-08 0)
(0.00059764879 3.3895026e-08 0)
(0.0005973399 3.4440505e-08 0)
(0.00059702581 3.4969425e-08 0)
(0.00059670653 3.5507038e-08 0)
(0.00059638208 3.6036538e-08 0)
(0.00059605249 3.6563975e-08 0)
(0.00059571776 3.7088026e-08 0)
(0.00059537794 3.7609289e-08 0)
(0.00059503304 3.8129467e-08 0)
(0.00059468309 3.8638284e-08 0)
(0.00059432812 3.9143665e-08 0)
(0.00059396815 3.9646116e-08 0)
(0.00059360322 4.0143963e-08 0)
(0.00059323337 4.0636811e-08 0)
(0.00059285862 4.1124254e-08 0)
(0.00059247901 4.1605603e-08 0)
(0.00059209456 4.2083804e-08 0)
(0.00059170532 4.2562222e-08 0)
(0.00059131131 4.3031496e-08 0)
(0.00059091257 4.3494365e-08 0)
(0.00059050912 4.3957225e-08 0)
(0.00059010099 4.4416599e-08 0)
(0.00058968822 4.4874257e-08 0)
(0.00058927083 4.5318518e-08 0)
(0.00058884884 4.5769789e-08 0)
(0.00058842229 4.6214802e-08 0)
(0.0005879912 4.665891e-08 0)
(0.00058755558 4.7097953e-08 0)
(0.00058711547 4.7528047e-08 0)
(0.00058667088 4.7962396e-08 0)
(0.00058622183 4.8395289e-08 0)
(0.00058576835 4.8823067e-08 0)
(0.00058531046 4.9248402e-08 0)
(0.00058484816 4.9664626e-08 0)
(0.00058438149 5.008911e-08 0)
(0.00058391046 5.0509868e-08 0)
(0.00058343507 5.0929464e-08 0)
(0.00058295536 5.1346527e-08 0)
(0.00058247134 5.1762484e-08 0)
(0.00058198304 5.217139e-08 0)
(0.00058149047 5.2582922e-08 0)
(0.00058099365 5.2985734e-08 0)
(0.00058049259 5.3397479e-08 0)
(0.00057998731 5.3797158e-08 0)
(0.00057947785 5.4203429e-08 0)
(0.00057896421 5.4601599e-08 0)
(0.00057844642 5.4995178e-08 0)
(0.00057792448 5.5390492e-08 0)
(0.00057739843 5.5784606e-08 0)
(0.00057686831 5.6172496e-08 0)
(0.0005763341 5.6560895e-08 0)
(0.00057579584 5.6948244e-08 0)
(0.00057525355 5.7336117e-08 0)
(0.00057470725 5.7716708e-08 0)
(0.00057415696 5.8093835e-08 0)
(0.00057360269 5.8474585e-08 0)
(0.00057304446 5.885097e-08 0)
(0.00057248229 5.9221971e-08 0)
(0.0005719162 5.9596365e-08 0)
(0.0005713462 5.9965419e-08 0)
(0.0005707723 6.0335729e-08 0)
(0.00057019452 6.0709532e-08 0)
(0.00056961288 6.1076422e-08 0)
(0.00056902737 6.1443352e-08 0)
(0.00056843802 6.1809614e-08 0)
(0.00056784483 6.2176443e-08 0)
(0.00056724781 6.2539548e-08 0)
(0.000566647 6.2902865e-08 0)
(0.00056604237 6.3262789e-08 0)
(0.00056543395 6.3625264e-08 0)
(0.00056482177 6.3989944e-08 0)
(0.00056420582 6.4344588e-08 0)
(0.00056358612 6.4703402e-08 0)
(0.00056296269 6.5053299e-08 0)
(0.00056233554 6.5412647e-08 0)
(0.0005617047 6.576161e-08 0)
(0.00056107019 6.6112636e-08 0)
(0.00056043203 6.6457106e-08 0)
(0.00055979024 6.6799574e-08 0)
(0.00055914485 6.7133675e-08 0)
(0.0005584959 6.7476541e-08 0)
(0.00055784341 6.78052e-08 0)
(0.00055718741 6.8130988e-08 0)
(0.00055652794 6.8453497e-08 0)
(0.00055586503 6.8774371e-08 0)
(0.00055519873 6.9088864e-08 0)
(0.00055452907 6.9400652e-08 0)
(0.00055385609 6.9702258e-08 0)
(0.00055317985 7.000222e-08 0)
(0.00055250037 7.0301373e-08 0)
(0.0005518177 7.0589806e-08 0)
(0.00055113189 7.087155e-08 0)
(0.00055044299 7.1150033e-08 0)
(0.00054975104 7.1424348e-08 0)
(0.00054905609 7.1692251e-08 0)
(0.00054835818 7.1959915e-08 0)
(0.00054765737 7.2215212e-08 0)
(0.0005469537 7.2465608e-08 0)
(0.00054624723 7.2718429e-08 0)
(0.000545538 7.2962657e-08 0)
(0.00054482606 7.319738e-08 0)
(0.00054411146 7.3428825e-08 0)
(0.00054339424 7.3658731e-08 0)
(0.00054267447 7.3878355e-08 0)
(0.00054195219 7.4093318e-08 0)
(0.00054122745 7.4306453e-08 0)
(0.0005405003 7.4510946e-08 0)
(0.00053977079 7.4710879e-08 0)
(0.00053903896 7.4907701e-08 0)
(0.00053830489 7.5099405e-08 0)
(0.00053756861 7.5289387e-08 0)
(0.00053683017 7.5464498e-08 0)
(0.00053608962 7.5642413e-08 0)
(0.00053534703 7.5809499e-08 0)
(0.00053460241 7.5975749e-08 0)
(0.00053385585 7.613142e-08 0)
(0.00053310739 7.6287171e-08 0)
(0.00053235709 7.6441222e-08 0)
(0.00053160498 7.6580952e-08 0)
(0.00053085112 7.6719431e-08 0)
(0.00053009557 7.6854933e-08 0)
(0.00052933836 7.6989408e-08 0)
(0.00052857955 7.7112061e-08 0)
(0.00052781918 7.7235677e-08 0)
(0.00052705729 7.7357426e-08 0)
(0.00052629394 7.7473224e-08 0)
(0.00052552917 7.7587419e-08 0)
(0.00052476303 7.7691122e-08 0)
(0.00052399553 7.7792578e-08 0)
(0.00052322674 7.789319e-08 0)
(0.00052245667 7.7988193e-08 0)
(0.00052168538 7.808416e-08 0)
(0.00052091289 7.8174399e-08 0)
(0.00052013922 7.8260338e-08 0)
(0.00051936442 7.8348764e-08 0)
(0.00051858851 7.8435727e-08 0)
(0.00051781151 7.8520149e-08 0)
(0.00051703345 7.8598479e-08 0)
(0.00051625435 7.8677938e-08 0)
(0.00051547421 7.8753361e-08 0)
(0.00051469308 7.8837742e-08 0)
(0.00051391096 7.8915001e-08 0)
(0.00051312785 7.8992746e-08 0)
(0.00051234378 7.9071738e-08 0)
(0.00051155875 7.9149808e-08 0)
(0.00051077277 7.9221324e-08 0)
(0.00050998585 7.9297284e-08 0)
(0.00050919799 7.9371474e-08 0)
(0.00050840921 7.9446913e-08 0)
(0.00050761949 7.9526857e-08 0)
(0.00050682885 7.9602666e-08 0)
(0.00050603729 7.9680329e-08 0)
(0.00050524482 7.9757235e-08 0)
(0.00050445142 7.9835479e-08 0)
(0.0005036571 7.9913155e-08 0)
(0.00050286186 7.9997151e-08 0)
(0.00050206572 8.0077136e-08 0)
(0.00050126866 8.0155212e-08 0)
(0.00050047068 8.023607e-08 0)
(0.00049967178 8.0317913e-08 0)
(0.00049887197 8.0403664e-08 0)
(0.00049807125 8.0485037e-08 0)
(0.00049726961 8.0565992e-08 0)
(0.00049646704 8.0654067e-08 0)
(0.00049566357 8.0738543e-08 0)
(0.00049485917 8.0818589e-08 0)
(0.00049405385 8.0905946e-08 0)
(0.00049324762 8.0988949e-08 0)
(0.00049244045 8.1078534e-08 0)
(0.00049163236 8.1169217e-08 0)
(0.00049082335 8.1261841e-08 0)
(0.00049001341 8.1349946e-08 0)
(0.00048920253 8.1436232e-08 0)
(0.00048839071 8.1523862e-08 0)
(0.00048757794 8.1620602e-08 0)
(0.00048676423 8.171384e-08 0)
(0.00048594955 8.1804971e-08 0)
(0.0004851339 8.1903626e-08 0)
(0.00048431727 8.2000266e-08 0)
(0.00048349965 8.2097591e-08 0)
(0.00048268103 8.2200063e-08 0)
(0.00048186139 8.2302957e-08 0)
(0.00048104071 8.2409483e-08 0)
(0.000480219 8.2522405e-08 0)
(0.00047939622 8.2631707e-08 0)
(0.00047857236 8.2740657e-08 0)
(0.00047774738 8.2858956e-08 0)
(0.00047692128 8.2974706e-08 0)
(0.00047609403 8.3094962e-08 0)
(0.00047526562 8.3221691e-08 0)
(0.000474436 8.3348713e-08 0)
(0.00047360517 8.3480314e-08 0)
(0.00047277309 8.3611922e-08 0)
(0.00047193972 8.3749335e-08 0)
(0.00047110504 8.3896276e-08 0)
(0.00047026903 8.4035552e-08 0)
(0.00046943163 8.4183782e-08 0)
(0.00046859283 8.4337541e-08 0)
(0.00046775259 8.4487878e-08 0)
(0.00046691088 8.4650247e-08 0)
(0.00046606767 8.4811133e-08 0)
(0.00046522292 8.4981834e-08 0)
(0.00046437656 8.5148551e-08 0)
(0.0004635286 8.5330063e-08 0)
(0.00046267898 8.5510117e-08 0)
(0.00046182766 8.5693326e-08 0)
(0.00046097461 8.5879737e-08 0)
(0.00046011977 8.6074865e-08 0)
(0.00045926312 8.6270183e-08 0)
(0.00045840462 8.6467677e-08 0)
(0.00045754421 8.6667173e-08 0)
(0.00045668187 8.6877644e-08 0)
(0.00045581755 8.7091273e-08 0)
(0.00045495121 8.7310044e-08 0)
(0.00045408281 8.7529076e-08 0)
(0.00045321231 8.7758796e-08 0)
(0.00045233966 8.7986122e-08 0)
(0.00045146483 8.8221123e-08 0)
(0.00045058778 8.8459734e-08 0)
(0.00044970846 8.8700045e-08 0)
(0.00044882684 8.894514e-08 0)
(0.00044794287 8.919651e-08 0)
(0.00044705651 8.9449408e-08 0)
(0.00044616772 8.9708345e-08 0)
(0.00044527648 8.9971017e-08 0)
(0.00044438272 9.0238568e-08 0)
(0.0004434864 9.0508218e-08 0)
(0.0004425875 9.078523e-08 0)
(0.00044168596 9.1062506e-08 0)
(0.00044078175 9.1343914e-08 0)
(0.00043987481 9.1628433e-08 0)
(0.00043896512 9.1922702e-08 0)
(0.00043805264 9.2219901e-08 0)
(0.00043713732 9.2522135e-08 0)
(0.00043621913 9.2825829e-08 0)
(0.00043529801 9.312962e-08 0)
(0.00043437392 9.3444205e-08 0)
(0.00043344681 9.3765589e-08 0)
(0.00043251665 9.4087108e-08 0)
(0.00043158339 9.4408567e-08 0)
(0.00043064698 9.4743239e-08 0)
(0.00042970738 9.5076481e-08 0)
(0.00042876454 9.5414982e-08 0)
(0.00042781841 9.5761833e-08 0)
(0.00042686895 9.6111545e-08 0)
(0.0004259161 9.6464105e-08 0)
(0.00042495981 9.6827438e-08 0)
(0.00042400003 9.7196164e-08 0)
(0.00042303671 9.7565044e-08 0)
(0.0004220698 9.7941598e-08 0)
(0.00042109923 9.8321426e-08 0)
(0.00042012496 9.8707007e-08 0)
(0.0004191469 9.9104001e-08 0)
(0.00041816503 9.9504938e-08 0)
(0.00041717927 9.9908465e-08 0)
(0.00041618955 1.0031935e-07 0)
(0.00041519583 1.0073634e-07 0)
(0.00041419803 1.0116009e-07 0)
(0.00041319609 1.0159397e-07 0)
(0.00041218994 1.0203212e-07 0)
(0.0004111795 1.0247668e-07 0)
(0.00041016471 1.0292805e-07 0)
(0.00040914551 1.0338394e-07 0)
(0.00040812182 1.0385164e-07 0)
(0.00040709357 1.0432412e-07 0)
(0.00040606069 1.0480829e-07 0)
(0.00040502309 1.0529508e-07 0)
(0.0004039807 1.0579414e-07 0)
(0.00040293345 1.0629735e-07 0)
(0.00040188125 1.0681327e-07 0)
(0.00040082402 1.0733877e-07 0)
(0.00039976171 1.078657e-07 0)
(0.00039869421 1.0840462e-07 0)
(0.00039762145 1.0894829e-07 0)
(0.00039654334 1.0950214e-07 0)
(0.00039545981 1.1006544e-07 0)
(0.00039437078 1.1064162e-07 0)
(0.00039327616 1.1122309e-07 0)
(0.00039217587 1.1180667e-07 0)
(0.00039106982 1.1239987e-07 0)
(0.00038995795 1.1300967e-07 0)
(0.00038884016 1.1362494e-07 0)
(0.00038771638 1.1424221e-07 0)
(0.00038658652 1.1487008e-07 0)
(0.00038545051 1.155074e-07 0)
(0.00038430828 1.1615262e-07 0)
(0.00038315974 1.1680801e-07 0)
(0.00038200482 1.1746389e-07 0)
(0.00038084345 1.181305e-07 0)
(0.00037967554 1.1880713e-07 0)
(0.00037850102 1.1948547e-07 0)
(0.00037731984 1.2017302e-07 0)
(0.00037613191 1.2086794e-07 0)
(0.00037493719 1.2156896e-07 0)
(0.0003737356 1.2227769e-07 0)
(0.00037252709 1.2298486e-07 0)
(0.0003713116 1.2370121e-07 0)
(0.00037008908 1.2442331e-07 0)
(0.00036885946 1.2514933e-07 0)
(0.00036762271 1.2587795e-07 0)
(0.00036637878 1.2660797e-07 0)
(0.00036512764 1.2735025e-07 0)
(0.00036386924 1.280878e-07 0)
(0.00036260356 1.288282e-07 0)
(0.00036133057 1.2957072e-07 0)
(0.00036005024 1.3031428e-07 0)
(0.00035876255 1.3106101e-07 0)
(0.0003574675 1.3180591e-07 0)
(0.00035616508 1.3254889e-07 0)
(0.00035485527 1.3328857e-07 0)
(0.00035353808 1.3402805e-07 0)
(0.00035221351 1.3476541e-07 0)
(0.00035088157 1.3549923e-07 0)
(0.00034954227 1.3622598e-07 0)
(0.00034819562 1.3695948e-07 0)
(0.00034684165 1.3768381e-07 0)
(0.00034548036 1.3839755e-07 0)
(0.00034411179 1.3911353e-07 0)
(0.00034273595 1.3982293e-07 0)
(0.00034135286 1.4052096e-07 0)
(0.00033996253 1.412184e-07 0)
(0.00033856498 1.4191192e-07 0)
(0.00033716022 1.4260415e-07 0)
(0.00033574824 1.432921e-07 0)
(0.00033432902 1.4398143e-07 0)
(0.00033290254 1.4466574e-07 0)
(0.00033146876 1.4534997e-07 0)
(0.00033002761 1.4604137e-07 0)
(0.00032857901 1.4673719e-07 0)
(0.00032712283 1.4744248e-07 0)
(0.00032565894 1.4816263e-07 0)
(0.00032418714 1.4888616e-07 0)
(0.00032270722 1.4964353e-07 0)
(0.00032121891 1.5043363e-07 0)
(0.00031972189 1.5124154e-07 0)
(0.00031821576 1.5208876e-07 0)
(0.0003167001 1.5298774e-07 0)
(0.00031517439 1.539341e-07 0)
(0.00031363802 1.5494402e-07 0)
(0.00031209031 1.5602515e-07 0)
(0.00031053049 1.5718541e-07 0)
(0.00030895769 1.5843216e-07 0)
(0.00030737094 1.5978711e-07 0)
(0.00030576914 1.6125429e-07 0)
(0.00030415106 1.6285238e-07 0)
(0.00030251536 1.6458448e-07 0)
(0.00030086055 1.6647938e-07 0)
(0.00029918498 1.6854499e-07 0)
(0.00029748685 1.7080338e-07 0)
(0.0002957642 1.7326694e-07 0)
(0.00029401487 1.7596135e-07 0)
(0.00029223655 1.7889694e-07 0)
(0.0002904267 1.8209825e-07 0)
(0.00028858259 1.8559063e-07 0)
(0.00028670127 1.8939371e-07 0)
(0.00028477959 1.9353557e-07 0)
(0.00028281414 1.9803581e-07 0)
(0.00028080129 2.0292323e-07 0)
(0.00027873713 2.0822918e-07 0)
(0.00027661754 2.1396924e-07 0)
(0.00027443811 2.2018412e-07 0)
(0.00027219417 2.2689917e-07 0)
(0.00026988077 2.3414269e-07 0)
(0.00026749268 2.4194369e-07 0)
(0.00026502442 2.5034423e-07 0)
(0.00026247022 2.5936618e-07 0)
(0.00025982401 2.6904295e-07 0)
(0.00025707947 2.7940714e-07 0)
(0.00025423002 2.9049172e-07 0)
(0.00025126884 3.0232456e-07 0)
(0.00024818882 3.1492457e-07 0)
(0.0002449827 3.2833449e-07 0)
(0.00024164296 3.4256913e-07 0)
(0.00023816195 3.5766461e-07 0)
(0.00023453186 3.7362657e-07 0)
(0.00023074482 3.9048619e-07 0)
(0.00022679287 4.0823953e-07 0)
(0.0002226681 4.2689617e-07 0)
(0.00021836267 4.4646425e-07 0)
(0.00021386887 4.6692608e-07 0)
(0.00020917926 4.8825985e-07 0)
(0.00020428675 5.1045011e-07 0)
(0.0001991847 5.3344895e-07 0)
(0.00019386705 5.5720257e-07 0)
(0.0001883285 5.8164199e-07 0)
(0.00018256466 6.0668335e-07 0)
(0.00017657224 6.3221035e-07 0)
(0.00017034924 6.5808119e-07 0)
(0.00016389523 6.8415128e-07 0)
(0.00015721154 7.1021697e-07 0)
(0.00015030161 7.3606024e-07 0)
(0.00014317126 7.6142313e-07 0)
(0.00013582903 7.8598876e-07 0)
(0.00012828657 8.0940868e-07 0)
(0.00012055898 8.3127984e-07 0)
(0.00011266529 8.511576e-07 0)
(0.00010462883 8.6849295e-07 0)
(9.6477765e-05 8.8271698e-07 0)
(8.8245504e-05 8.9317147e-07 0)
(7.9971205e-05 8.9910303e-07 0)
(7.1700279e-05 8.9969539e-07 0)
(6.3484841e-05 8.9402903e-07 0)
(5.5384151e-05 8.8109309e-07 0)
(4.7464992e-05 8.597625e-07 0)
(3.9801963e-05 8.2880931e-07 0)
(3.2477641e-05 7.8688182e-07 0)
(2.5582506e-05 7.3251833e-07 0)
(1.9214467e-05 6.6414558e-07 0)
(1.3477947e-05 5.8012968e-07 0)
(8.482227e-06 4.7846759e-07 0)
(4.3359133e-06 3.562844e-07 0)
(1.1304636e-06 2.1601059e-07 0)
(-1.031293e-06 7.033293e-08 0)
(-2.1075096e-06 -9.4849966e-08 0)
(-2.1559027e-06 -2.5272136e-07 0)
(-1.4144433e-06 -3.5692246e-07 0)
(-3.1754132e-07 -3.1728696e-07 0)
(-6.4164472e-07 2.5400731e-06 0)
(-2.9066312e-06 2.9173858e-06 0)
(-2.8971325e-06 7.8562884e-07 0)
(7.4845379e-07 -2.5305346e-06 0)
(8.9537111e-06 -6.3197273e-06 0)
(2.2043894e-05 -1.0177716e-05 0)
(4.0027406e-05 -1.3930999e-05 0)
(6.2730647e-05 -1.7465724e-05 0)
(8.9897307e-05 -2.0737121e-05 0)
(0.00012121929 -2.3732204e-05 0)
(0.00015636648 -2.6452355e-05 0)
(0.00019500404 -2.890601e-05 0)
(0.00023680132 -3.1104613e-05 0)
(0.00028143654 -3.3060447e-05 0)
(0.00032859881 -3.4785441e-05 0)
(0.00037798866 -3.6290594e-05 0)
(0.00042931774 -3.7585758e-05 0)
(0.00048230806 -3.8679534e-05 0)
(0.00053669101 -3.9579403e-05 0)
(0.00059220631 -4.0291833e-05 0)
(0.00064860117 -4.0822443e-05 0)
(0.00070562953 -4.1176223e-05 0)
(0.00076305153 -4.1357734e-05 0)
(0.0008206332 -4.1371338e-05 0)
(0.0008781465 -4.1221414e-05 0)
(0.00093536944 -4.0912575e-05 0)
(0.00099208661 -4.0449794e-05 0)
(0.0010480898 -3.9838643e-05 0)
(0.0011031789 -3.9085384e-05 0)
(0.0011571628 -3.8197079e-05 0)
(0.0012098608 -3.7181635e-05 0)
(0.0012611032 -3.6047851e-05 0)
(0.001310733 -3.4805377e-05 0)
(0.001358607 -3.34647e-05 0)
(0.0014045963 -3.2037029e-05 0)
(0.0014485878 -3.0534205e-05 0)
(0.0014904847 -2.8968523e-05 0)
(0.0015302071 -2.7352619e-05 0)
(0.0015676923 -2.5699257e-05 0)
(0.0016028946 -2.4021178e-05 0)
(0.0016357859 -2.233092e-05 0)
(0.0016663546 -2.0640638e-05 0)
(0.0016946053 -1.8961955e-05 0)
(0.0017205581 -1.7305811e-05 0)
(0.0017442476 -1.5682348e-05 0)
(0.0017657216 -1.4100813e-05 0)
(0.0017850401 -1.2569465e-05 0)
(0.0018022737 -1.1095554e-05 0)
(0.0018175026 -9.6852415e-06 0)
(0.0018308149 -8.3436417e-06 0)
(0.001842305 -7.074817e-06 0)
(0.0018520728 -5.8818214e-06 0)
(0.0018602218 -4.7667209e-06 0)
(0.001866858 -3.7306726e-06 0)
(0.001872089 -2.773991e-06 0)
(0.0018760222 -1.8962372e-06 0)
(0.0018787646 -1.0963587e-06 0)
(0.0018804212 -3.7305984e-07 0)
(0.0018810943 2.7530812e-07 0)
(0.0018808838 8.5510008e-07 0)
(0.0018798872 1.3663256e-06 0)
(0.0018781937 1.8131037e-06 0)
(0.0018758919 2.1984437e-06 0)
(0.0018730638 2.526234e-06 0)
(0.001869787 2.8003537e-06 0)
(0.0018661337 3.0246555e-06 0)
(0.0018621712 3.2029822e-06 0)
(0.0018579614 3.3391465e-06 0)
(0.0018535613 3.4368719e-06 0)
(0.0018490227 3.4997897e-06 0)
(0.0018443928 3.5313655e-06 0)
(0.0018397139 3.5349718e-06 0)
(0.0018350239 3.5137929e-06 0)
(0.0018303564 3.470866e-06 0)
(0.0018257409 3.4090107e-06 0)
(0.0018212032 3.3308959e-06 0)
(0.0018167655 3.2390037e-06 0)
(0.0018124466 3.1356265e-06 0)
(0.0018082621 3.0228938e-06 0)
(0.0018042251 2.9027238e-06 0)
(0.0018003457 2.7769019e-06 0)
(0.0017966318 2.6470228e-06 0)
(0.0017930893 2.5145317e-06 0)
(0.0017897218 2.3807337e-06 0)
(0.0017865314 2.24676e-06 0)
(0.0017835186 2.1136266e-06 0)
(0.0017806824 1.9822373e-06 0)
(0.0017780208 1.8533522e-06 0)
(0.0017755305 1.7276314e-06 0)
(0.0017732076 1.6056176e-06 0)
(0.0017710472 1.487802e-06 0)
(0.0017690439 1.3745404e-06 0)
(0.0017671917 1.2661365e-06 0)
(0.0017654842 1.1628231e-06 0)
(0.0017639148 1.0647603e-06 0)
(0.0017624764 9.7205302e-07 0)
(0.001761162 8.8474246e-07 0)
(0.0017599644 8.0284092e-07 0)
(0.0017588766 7.2631926e-07 0)
(0.0017578912 6.550958e-07 0)
(0.0017570014 5.8908082e-07 0)
(0.0017562001 5.2813961e-07 0)
(0.0017554806 4.7211533e-07 0)
(0.0017548363 4.2084947e-07 0)
(0.0017542609 3.7416e-07 0)
(0.0017537483 3.3184557e-07 0)
(0.0017532926 2.9370074e-07 0)
(0.0017528882 2.5951551e-07 0)
(0.0017525299 2.2908215e-07 0)
(0.0017522126 2.0217465e-07 0)
(0.0017519315 1.785806e-07 0)
(0.0017516824 1.5809628e-07 0)
(0.0017514608 1.4049289e-07 0)
(0.0017512631 1.255682e-07 0)
(0.0017510856 1.1314249e-07 0)
(0.0017509248 1.0300269e-07 0)
(0.0017507779 9.4956737e-08 0)
(0.0017506418 8.8836467e-08 0)
(0.0017505141 8.4476561e-08 0)
(0.0017503922 8.1713284e-08 0)
(0.0017502742 8.039352e-08 0)
(0.001750158 8.0393006e-08 0)
(0.0017500418 8.154844e-08 0)
(0.0017499241 8.3759764e-08 0)
(0.0017498034 8.6887495e-08 0)
(0.0017496785 9.0858574e-08 0)
(0.0017495482 9.5559013e-08 0)
(0.0017494116 1.0089364e-07 0)
(0.0017492677 1.0678615e-07 0)
(0.0017491159 1.1316107e-07 0)
(0.0017489554 1.1995903e-07 0)
(0.0017487856 1.2712e-07 0)
(0.001748606 1.3459068e-07 0)
(0.0017484163 1.4232337e-07 0)
(0.001748216 1.5027768e-07 0)
(0.0017480048 1.584193e-07 0)
(0.0017477826 1.6671414e-07 0)
(0.0017475489 1.7513488e-07 0)
(0.0017473038 1.8365975e-07 0)
(0.0017470469 1.9226551e-07 0)
(0.0017467783 2.0095162e-07 0)
(0.0017464977 2.0968323e-07 0)
(0.0017462051 2.1846804e-07 0)
(0.0017459004 2.2728447e-07 0)
(0.0017455835 2.3614538e-07 0)
(0.0017452545 2.4502773e-07 0)
(0.0017449131 2.5394647e-07 0)
(0.0017445594 2.6288207e-07 0)
(0.0017441934 2.718567e-07 0)
(0.0017438149 2.8085178e-07 0)
(0.001743424 2.8988594e-07 0)
(0.0017430205 2.9894437e-07 0)
(0.0017426044 3.0804269e-07 0)
(0.0017421757 3.1717895e-07 0)
(0.0017417343 3.2635338e-07 0)
(0.00174128 3.3559161e-07 0)
(0.0017408129 3.4486518e-07 0)
(0.0017403329 3.5418497e-07 0)
(0.0017398398 3.6356554e-07 0)
(0.0017393336 3.7300284e-07 0)
(0.0017388142 3.8251363e-07 0)
(0.0017382815 3.920704e-07 0)
(0.0017377355 4.0169537e-07 0)
(0.0017371759 4.1138502e-07 0)
(0.0017366027 4.2114909e-07 0)
(0.0017360159 4.3096955e-07 0)
(0.0017354152 4.4086699e-07 0)
(0.0017348006 4.5082368e-07 0)
(0.0017341721 4.6085214e-07 0)
(0.0017335294 4.7094522e-07 0)
(0.0017328726 4.8109827e-07 0)
(0.0017322014 4.9131324e-07 0)
(0.0017315159 5.0157896e-07 0)
(0.001730816 5.1190738e-07 0)
(0.0017301015 5.2227443e-07 0)
(0.0017293723 5.3268228e-07 0)
(0.0017286286 5.4313159e-07 0)
(0.0017278701 5.5360449e-07 0)
(0.0017270968 5.6411355e-07 0)
(0.0017263087 5.7464393e-07 0)
(0.0017255057 5.8517453e-07 0)
(0.0017246879 5.9571575e-07 0)
(0.0017238552 6.0625444e-07 0)
(0.0017230076 6.1678767e-07 0)
(0.0017221452 6.2730728e-07 0)
(0.0017212679 6.3779497e-07 0)
(0.0017203757 6.482671e-07 0)
(0.0017194687 6.5870049e-07 0)
(0.0017185469 6.6909346e-07 0)
(0.0017176104 6.7944258e-07 0)
(0.0017166593 6.8974772e-07 0)
(0.0017156935 7.0000942e-07 0)
(0.0017147132 7.1020542e-07 0)
(0.0017137184 7.2033627e-07 0)
(0.0017127092 7.3041407e-07 0)
(0.0017116856 7.4042969e-07 0)
(0.0017106478 7.5037865e-07 0)
(0.0017095958 7.6026801e-07 0)
(0.0017085298 7.7009027e-07 0)
(0.0017074497 7.7985031e-07 0)
(0.0017063556 7.8954358e-07 0)
(0.0017052478 7.9918027e-07 0)
(0.0017041261 8.0874745e-07 0)
(0.0017029908 8.1826319e-07 0)
(0.0017018418 8.2772055e-07 0)
(0.0017006793 8.3712573e-07 0)
(0.0016995033 8.4646582e-07 0)
(0.0016983139 8.5576269e-07 0)
(0.0016971112 8.6501063e-07 0)
(0.0016958952 8.742065e-07 0)
(0.001694666 8.8336141e-07 0)
(0.0016934236 8.9245876e-07 0)
(0.0016921682 9.0152864e-07 0)
(0.0016908996 9.1055507e-07 0)
(0.0016896181 9.1953697e-07 0)
(0.0016883237 9.2848587e-07 0)
(0.0016870164 9.3739092e-07 0)
(0.0016856962 9.4626294e-07 0)
(0.0016843633 9.5510471e-07 0)
(0.0016830176 9.6390491e-07 0)
(0.0016816592 9.7266919e-07 0)
(0.0016802882 9.8140288e-07 0)
(0.0016789046 9.9008522e-07 0)
(0.0016775085 9.9874465e-07 0)
(0.0016760998 1.0073586e-06 0)
(0.0016746788 1.015943e-06 0)
(0.0016732453 1.0244807e-06 0)
(0.0016717995 1.0329872e-06 0)
(0.0016703415 1.0414413e-06 0)
(0.0016688712 1.0498603e-06 0)
(0.0016673887 1.0582426e-06 0)
(0.0016658942 1.0665816e-06 0)
(0.0016643876 1.0748747e-06 0)
(0.001662869 1.0831289e-06 0)
(0.0016613385 1.0913434e-06 0)
(0.0016597961 1.0995128e-06 0)
(0.0016582419 1.107645e-06 0)
(0.0016566759 1.1157334e-06 0)
(0.0016550982 1.1238e-06 0)
(0.0016535089 1.1318264e-06 0)
(0.0016519079 1.1398145e-06 0)
(0.0016502954 1.1477752e-06 0)
(0.0016486713 1.1557026e-06 0)
(0.0016470358 1.1635996e-06 0)
(0.0016453888 1.1714761e-06 0)
(0.0016437304 1.1793297e-06 0)
(0.0016420607 1.1871536e-06 0)
(0.0016403796 1.194953e-06 0)
(0.0016386872 1.2027377e-06 0)
(0.0016369836 1.2104942e-06 0)
(0.0016352687 1.2182284e-06 0)
(0.0016335426 1.225935e-06 0)
(0.0016318054 1.2336228e-06 0)
(0.001630057 1.2412828e-06 0)
(0.0016282976 1.2489062e-06 0)
(0.0016265271 1.256508e-06 0)
(0.0016247456 1.2640717e-06 0)
(0.0016229531 1.2715992e-06 0)
(0.0016211498 1.2790901e-06 0)
(0.0016193356 1.2865329e-06 0)
(0.0016175106 1.293926e-06 0)
(0.0016156749 1.3012674e-06 0)
(0.0016138286 1.3085524e-06 0)
(0.0016119717 1.3157871e-06 0)
(0.0016101044 1.3229546e-06 0)
(0.0016082267 1.3300404e-06 0)
(0.0016063386 1.3370552e-06 0)
(0.0016044404 1.3440111e-06 0)
(0.0016025321 1.3508749e-06 0)
(0.0016006138 1.3576754e-06 0)
(0.0015986857 1.3643711e-06 0)
(0.0015967478 1.370996e-06 0)
(0.0015948003 1.3775316e-06 0)
(0.0015928432 1.3839683e-06 0)
(0.0015908768 1.390316e-06 0)
(0.0015889011 1.3965736e-06 0)
(0.0015869163 1.4027308e-06 0)
(0.0015849225 1.4087998e-06 0)
(0.0015829199 1.4147736e-06 0)
(0.0015809085 1.4206421e-06 0)
(0.0015788885 1.4264145e-06 0)
(0.0015768601 1.4320931e-06 0)
(0.0015748233 1.4376719e-06 0)
(0.0015727784 1.4431477e-06 0)
(0.0015707254 1.4485241e-06 0)
(0.0015686646 1.4538065e-06 0)
(0.001566596 1.4589766e-06 0)
(0.0015645198 1.4640478e-06 0)
(0.0015624361 1.4690244e-06 0)
(0.0015603451 1.4738952e-06 0)
(0.0015582469 1.4786676e-06 0)
(0.0015561417 1.4833323e-06 0)
(0.0015540296 1.4878954e-06 0)
(0.0015519108 1.4923642e-06 0)
(0.0015497854 1.496717e-06 0)
(0.0015476535 1.5009745e-06 0)
(0.0015455154 1.5051203e-06 0)
(0.001543371 1.5091656e-06 0)
(0.0015412207 1.5131047e-06 0)
(0.0015390646 1.5169459e-06 0)
(0.0015369027 1.5206874e-06 0)
(0.0015347353 1.5243162e-06 0)
(0.0015325625 1.527849e-06 0)
(0.0015303844 1.5312827e-06 0)
(0.0015282012 1.5346208e-06 0)
(0.001526013 1.5378577e-06 0)
(0.00152382 1.5410077e-06 0)
(0.0015216222 1.5440709e-06 0)
(0.0015194199 1.5470343e-06 0)
(0.0015172132 1.5499134e-06 0)
(0.0015150021 1.5527072e-06 0)
(0.0015127868 1.5554194e-06 0)
(0.0015105675 1.5580613e-06 0)
(0.0015083442 1.5606262e-06 0)
(0.001506117 1.5631217e-06 0)
(0.001503886 1.5655472e-06 0)
(0.0015016514 1.5679094e-06 0)
(0.0014994132 1.5702202e-06 0)
(0.0014971715 1.5724798e-06 0)
(0.0014949264 1.5746851e-06 0)